[Molden Format]
[Title]
 Molden file created by orca_2mkl for BaseName=N4

[Atoms] AU
N    1   7          0.9826575896         1.0015548510         0.9637603283 
N    2   7         -0.9826575896        -0.9826575896         0.9826575896 
N    3   7         -0.9826575896         0.9826575896        -0.9826575896 
N    4   7          0.9826575896        -0.9826575896        -0.9826575896 
[GTO]
  1 0
s   5 1.0 
     1712.8415853000        -1.0337585405
      257.6481267700        -1.8620740805
       58.4582458530        -2.7290401880
       16.1983679050        -2.6956734544
        5.0052600809        -1.0640914367
s   1 1.0 
        0.5873185657         0.4781513534
s   1 1.0 
        0.1876459225         0.2031956662
p   3 1.0 
       13.5714702330        -2.1850243557
        2.9257372874        -1.7466999024
        0.7992775075        -0.8114650516
p   1 1.0 
        0.2195434803         0.2142105067
d   1 1.0 
        1.0000000000         2.8508218814

  2 0
s   5 1.0 
     1712.8415853000        -1.0337585405
      257.6481267700        -1.8620740805
       58.4582458530        -2.7290401880
       16.1983679050        -2.6956734544
        5.0052600809        -1.0640914367
s   1 1.0 
        0.5873185657         0.4781513534
s   1 1.0 
        0.1876459225         0.2031956662
p   3 1.0 
       13.5714702330        -2.1850243557
        2.9257372874        -1.7466999024
        0.7992775075        -0.8114650516
p   1 1.0 
        0.2195434803         0.2142105067
d   1 1.0 
        1.0000000000         2.8508218814

  3 0
s   5 1.0 
     1712.8415853000        -1.0337585405
      257.6481267700        -1.8620740805
       58.4582458530        -2.7290401880
       16.1983679050        -2.6956734544
        5.0052600809        -1.0640914367
s   1 1.0 
        0.5873185657         0.4781513534
s   1 1.0 
        0.1876459225         0.2031956662
p   3 1.0 
       13.5714702330        -2.1850243557
        2.9257372874        -1.7466999024
        0.7992775075        -0.8114650516
p   1 1.0 
        0.2195434803         0.2142105067
d   1 1.0 
        1.0000000000         2.8508218814

  4 0
s   5 1.0 
     1712.8415853000        -1.0337585405
      257.6481267700        -1.8620740805
       58.4582458530        -2.7290401880
       16.1983679050        -2.6956734544
        5.0052600809        -1.0640914367
s   1 1.0 
        0.5873185657         0.4781513534
s   1 1.0 
        0.1876459225         0.2031956662
p   3 1.0 
       13.5714702330        -2.1850243557
        2.9257372874        -1.7466999024
        0.7992775075        -0.8114650516
p   1 1.0 
        0.2195434803         0.2142105067
d   1 1.0 
        1.0000000000         2.8508218814

[5D]
[7F]
[9G]
[MO]
 Sym=     1a
 Ene= -1.57527328360462E+01
 Spin= Alpha
 Occup= 2.000000
  1      -0.502169995950
  2       0.017093496042
  3      -0.004755250128
  4       0.001183030846
  5       0.001196041456
  6       0.001170891751
  7       0.001375545709
  8       0.001377191359
  9       0.001392328823
 10       0.000017635889
 11      -0.000418320733
 12      -0.000423241486
 13       0.000008561221
 14      -0.000432845722
 15      -0.506779632908
 16       0.017207417694
 17      -0.004732737290
 18      -0.001186316104
 19      -0.001191949638
 20       0.001197700374
 21      -0.001338481336
 22      -0.001338519234
 23       0.001388787277
 24       0.000005394055
 25       0.000427267818
 26       0.000418148300
 27       0.000000655696
 28      -0.000421915209
 29      -0.482561740922
 30       0.016488461595
 31      -0.004410506607
 32      -0.001145672410
 33       0.001137497964
 34      -0.001138987057
 35      -0.001349060974
 36       0.001332274468
 37      -0.001330652570
 38      -0.000003415265
 39      -0.000443555366
 40       0.000437201095
 41      -0.000001498356
 42       0.000422834470
 43      -0.490734632752
 44       0.016718921022
 45      -0.004472102246
 46       0.001158494352
 47      -0.001163462043
 48      -0.001151176794
 49       0.001337752477
 50      -0.001330210450
 51      -0.001311753517
 52      -0.000003006503
 53       0.000440313586
 54      -0.000433452622
 55       0.000002100748
 56       0.000416843424
 Sym=     1a
 Ene= -1.57520706446168E+01
 Spin= Alpha
 Occup= 2.000000
  1      -0.596715309163
  2       0.019611854839
  3      -0.015013674669
  4       0.001358395372
  5       0.001374988847
  6       0.001236947540
  7       0.003567147079
  8       0.003758583589
  9       0.001597647062
 10      -0.000364506174
 11       0.000038202824
 12       0.000071625405
 13      -0.000024410888
 14       0.000605256077
 15       0.777901324547
 16      -0.025518351059
 17       0.019642936738
 18       0.001729016940
 19       0.001743611174
 20      -0.001693911286
 21       0.004178815714
 22       0.004357505335
 23      -0.003141668828
 24       0.000199319120
 25       0.000209615259
 26       0.000251509938
 27       0.000026002528
 28      -0.000526357940
 29      -0.128923491792
 30       0.004250290223
 31      -0.003208907668
 32      -0.000168676422
 33       0.000386420526
 34      -0.000298179471
 35       0.001082504287
 36       0.002143767064
 37      -0.000884374534
 38       0.000070053784
 39      -0.000378335429
 40      -0.000540662900
 41      -0.000526427479
 42       0.000014790072
 43      -0.065934231097
 44       0.002163544993
 45      -0.001557383442
 46       0.000241962813
 47      -0.000029970179
 48      -0.000170498436
 49       0.001740625612
 50       0.001486138143
 51      -0.000660533510
 52       0.000102294247
 53      -0.000524592684
 54      -0.000378144762
 55       0.000522731439
 56       0.000071603246
 Sym=     1a
 Ene= -1.57520461493210E+01
 Spin= Alpha
 Occup= 2.000000
  1       0.490882221958
  2      -0.016109164393
  3       0.012472215451
  4      -0.001001555629
  5      -0.001126958705
  6      -0.001163133238
  7      -0.000985071910
  8      -0.002859888252
  9      -0.003527456261
 10      -0.000307026601
 11      -0.000123921915
 12      -0.000635131415
 13       0.000297409184
 14       0.000098160040
 15       0.306032445198
 16      -0.010019583906
 17       0.007743710542
 18       0.000696793295
 19       0.000575347822
 20      -0.000776293458
 21       0.001748311143
 22      -0.000117944642
 23      -0.002903780203
 24      -0.000391024730
 25       0.000592391066
 26       0.000073471447
 27      -0.000300904209
 28       0.000249699212
 29      -0.014027883895
 30       0.000456557448
 31      -0.000218787033
 32       0.000007638268
 33      -0.000046085384
 34      -0.000161981645
 35       0.000664224504
 36      -0.001127041310
 37      -0.001890194557
 38       0.000526775648
 39       0.000336412349
 40      -0.000200108528
 41       0.000076090379
 42       0.000530943626
 43      -0.804572997968
 44       0.026425605128
 45      -0.020201775530
 46       0.001759950807
 47      -0.001793521513
 48      -0.001832618163
 49       0.003459871249
 50      -0.003916487592
 51      -0.004606532960
 52       0.000176660581
 53      -0.000365230791
 54       0.000487264109
 55      -0.000071785303
 56      -0.000155878754
 Sym=     1a
 Ene= -1.57520270173465E+01
 Spin= Alpha
 Occup= 2.000000
  1      -0.364799215920
  2       0.011957955007
  3      -0.009312283987
  4       0.000894965818
  5       0.000704325284
  6       0.000867896462
  7       0.002847825461
  8       0.000138387480
  9       0.002498052697
 10       0.000198826567
 11       0.000667200196
 12      -0.000109941662
 13       0.000452962791
 14      -0.000023956859
 15      -0.163377321738
 16       0.005347262560
 17      -0.004241665395
 18      -0.000242248891
 19      -0.000421918289
 20       0.000430516499
 21       0.001021746089
 22      -0.001686028891
 23       0.001816963572
 24       0.000278688814
 25       0.000161941466
 26      -0.000596508112
 27      -0.000432831353
 28      -0.000198081465
 29       0.855913086710
 30      -0.028147453941
 31       0.021560124411
 32       0.001953329276
 33      -0.001885618080
 34       0.001926905000
 35       0.004542068146
 36      -0.004029241476
 37       0.004201361623
 38       0.000008542254
 39      -0.000437579716
 40       0.000277744799
 41      -0.000091303150
 42       0.000367917928
 43      -0.299636982039
 44       0.009837506067
 45      -0.007733956531
 46       0.000740928682
 47      -0.000710820492
 48      -0.000551133320
 49       0.002629074893
 50      -0.002161036813
 51       0.000205278162
 52      -0.000484538759
 53       0.000043643167
 54      -0.000176699836
 55       0.000079031412
 56      -0.000626492529
 Sym=     1a
 Ene= -1.66780476357454E+00
 Spin= Alpha
 Occup= 2.000000
  1       0.130043126386
  2       0.262056366909
  3       0.070310285809
  4       0.078555720984
  5       0.078620724330
  6       0.078461229197
  7      -0.021833509248
  8      -0.022034616703
  9      -0.021635816529
 10      -0.000183654349
 11       0.013337432991
 12       0.013386507542
 13      -0.000104448621
 14       0.013439863369
 15       0.129180216924
 16       0.260399778419
 17       0.069257776284
 18      -0.077406163522
 19      -0.077906428058
 20       0.078820333089
 21       0.021443273978
 22       0.021443284135
 23      -0.021655882202
 24       0.000114492747
 25      -0.013385520662
 26      -0.013423744339
 27      -0.000102247420
 28       0.013219811389
 29       0.130905743644
 30       0.263708895145
 31       0.071429481579
 32      -0.079690970682
 33       0.078243544707
 34      -0.079172969507
 35       0.022253684400
 36      -0.022024923709
 37       0.022248094992
 38      -0.000033499910
 39       0.013558875039
 40      -0.013350316559
 41       0.000153361280
 42      -0.013387920792
 43       0.130031963378
 44       0.262033613081
 45       0.070330965990
 46       0.078540493372
 47      -0.079041545441
 48      -0.078023555690
 49      -0.021840601866
 50       0.021845460548
 51       0.021839935028
 52      -0.000180106579
 53      -0.013350335873
 54       0.013386347440
 55      -0.000103820564
 56      -0.013426192184
 Sym=     1a
 Ene= -1.04590856677670E+00
 Spin= Alpha
 Occup= 2.000000
  1      -0.159545247131
  2      -0.338203397327
  3      -0.307851611371
  4      -0.029924524772
  5       0.102396985802
  6      -0.094465043026
  7       0.042950001486
  8       0.008859070229
  9       0.059967074610
 10      -0.012958770645
 11      -0.014161560806
 12      -0.000035525699
 13      -0.011435867506
 14       0.007102099875
 15       0.171029096533
 16       0.362431488888
 17       0.329760932390
 18      -0.034341229310
 19       0.095788586686
 20       0.082498869456
 21       0.046534462913
 22       0.012898933445
 23      -0.059909957985
 24       0.011380259525
 25      -0.013531965377
 26       0.000550970463
 27       0.011250228125
 28      -0.005738515591
 29      -0.093530678405
 30      -0.198282072038
 31      -0.180943410783
 32       0.107924467241
 33       0.139422581189
 34       0.041943370996
 35      -0.049080224726
 36      -0.015628683676
 37      -0.031687977158
 38      -0.005592217975
 39      -0.016640157037
 40      -0.010141449491
 41      -0.021341626996
 42      -0.003135940717
 43       0.083400188631
 44       0.176694183742
 45       0.161629863759
 46       0.100693416229
 47       0.142961825640
 48      -0.053129622092
 49      -0.045006250313
 50      -0.018489967426
 51       0.032499313281
 52       0.007458380450
 53      -0.017011368403
 54      -0.009228341778
 55       0.021216363706
 56       0.004078040795
 Sym=     1a
 Ene= -1.04246955788541E+00
 Spin= Alpha
 Occup= 2.000000
  1      -0.043940762170
  2      -0.093151747655
  3      -0.085548739293
  4       0.156330660136
  5      -0.080797432645
  6      -0.080152982920
  7      -0.031303938503
  8       0.030879922105
  9       0.031157257731
 10      -0.011710159782
 11       0.007815665003
 12      -0.017620187843
 13       0.020555060073
 14       0.008020214446
 15       0.121144758056
 16       0.256825278086
 17       0.234947666346
 18       0.115325342816
 19      -0.120427959308
 20       0.007435959638
 21      -0.003504746612
 22       0.058412978385
 23      -0.029117193622
 24       0.000408919994
 25       0.010913967420
 26      -0.014591331462
 27      -0.020344402805
 28       0.001251711621
 29       0.120553915755
 30       0.255550775792
 31       0.235527237706
 32       0.115739668730
 33       0.006471146470
 34      -0.122150527288
 35      -0.003218980070
 36      -0.028621301051
 37       0.059511911748
 38       0.017663095778
 39       0.001426953434
 40      -0.014506351169
 41      -0.010668481172
 42       0.011069702893
 43      -0.197759564808
 44      -0.419228317266
 45      -0.384935833710
 46       0.074707732104
 47       0.048811311903
 48       0.046700599077
 49       0.024592539283
 50      -0.057312970982
 51      -0.056323079797
 52      -0.005827040470
 53      -0.001774668867
 54      -0.011474786417
 55       0.010763638075
 56      -0.001686241803
 Sym=     1a
 Ene= -1.03908109386350E+00
 Spin= Alpha
 Occup= 2.000000
  1      -0.159063286794
  2      -0.337219847103
  3      -0.312272334685
  4      -0.024808493222
  5      -0.091892377407
  6       0.105159322232
  7       0.042736978051
  8       0.060360232827
  9       0.007783444756
 10       0.016394277329
 11       0.007489143821
 12       0.000427622249
 13       0.005882287620
 14      -0.013732285625
 15      -0.094604776123
 16      -0.200547301093
 17      -0.185234232735
 18       0.106231568246
 19       0.040491143363
 20       0.137429820470
 21      -0.049366469626
 22      -0.032095118862
 23      -0.015141119074
 24       0.021186735893
 25      -0.002511020658
 26      -0.009704646592
 27      -0.005567543543
 28      -0.016462142300
 29       0.170920497419
 30       0.362471197153
 31       0.335815028263
 32      -0.032754012550
 33       0.081612274789
 34       0.099414750997
 35       0.047635922531
 36      -0.059778583398
 37       0.012219521724
 38      -0.015616354339
 39      -0.006050068369
 40       0.000769503880
 41      -0.004163056017
 42      -0.013436183152
 43       0.081384869674
 44       0.172632007121
 45       0.159064448011
 46       0.101084538211
 47      -0.051664637198
 48       0.146218251682
 49      -0.044966798100
 50       0.031936831355
 51      -0.020760955877
 52      -0.022095160729
 53       0.004373651580
 54      -0.009679136940
 55       0.004243905720
 56      -0.017031451951
 Sym=     1a
 Ene= -6.94095048054251E-01
 Spin= Alpha
 Occup= 2.000000
  1      -0.064209787387
  2      -0.128755462617
  3      -0.184245912779
  4       0.167069096106
  5       0.169439817100
  6       0.164708132210
  7      -0.080981362487
  8      -0.082462906327
  9      -0.079514883357
 10      -0.000469047260
 11       0.020372838603
 12       0.020774430418
 13      -0.000274709807
 14       0.021180200708
 15      -0.064196802708
 16      -0.128784663453
 17      -0.184643063985
 18      -0.165320509901
 19      -0.166201440460
 20       0.166144117940
 21       0.080035341424
 22       0.080272670713
 23      -0.080102735032
 24       0.000087302905
 25      -0.020609379553
 26      -0.020724277044
 27      -0.000096161813
 28       0.020732055899
 29      -0.064207646127
 30      -0.128689957355
 31      -0.183767713537
 32      -0.168841975978
 33       0.167970904746
 34      -0.167979931760
 35       0.081970092528
 36      -0.081870251341
 37       0.081739534388
 38      -0.000033193907
 39       0.020834306360
 40      -0.020834627296
 41       0.000132005451
 42      -0.020949386168
 43      -0.064207835484
 44      -0.128747750074
 45      -0.184236177660
 46       0.167045356878
 47      -0.167945511881
 48      -0.166202535545
 49      -0.080971738667
 50       0.081225891159
 51       0.080757953970
 52      -0.000163792953
 53      -0.020663350317
 54       0.020781549652
 55      -0.000098121672
 56      -0.020892959465
 Sym=     1a
 Ene= -5.78090769835614E-01
 Spin= Alpha
 Occup= 2.000000
  1       0.072107844324
  2       0.167317843626
  3       0.125733747009
  4      -0.041593874100
  5      -0.031753817690
  6      -0.295837516181
  7       0.048417556620
  8       0.043300074750
  9       0.185623149425
 10      -0.023969701889
 11      -0.008171836770
 12      -0.007409764652
 13      -0.000381559001
 14       0.004081660222
 15      -0.118339844793
 16      -0.274893352265
 17      -0.206073258948
 18      -0.165634525439
 19      -0.169543483287
 20       0.260847709020
 21       0.131515454334
 22       0.134612106362
 23      -0.183445606246
 24       0.008398338620
 25      -0.007156294114
 26      -0.007713100375
 27       0.000058022299
 28       0.003296332787
 29       0.023755284593
 30       0.055040649249
 31       0.041600657848
 32       0.245990629328
 33       0.110654578517
 34      -0.015882335415
 35      -0.141628788565
 36      -0.051201477453
 37       0.000412880635
 38       0.007847181016
 39      -0.008018162548
 40      -0.008323056019
 41      -0.028293221338
 42       0.003472347646
 43       0.021959672726
 44       0.050875770440
 45       0.038781531594
 46       0.105536436791
 47       0.234710636421
 48      -0.022415036509
 49      -0.048892945351
 50      -0.133680775109
 51       0.004499881946
 52       0.008067617613
 53      -0.007705386140
 54      -0.006956029420
 55       0.027903416623
 56       0.003594366290
 Sym=     1a
 Ene= -5.76975563968019E-01
 Spin= Alpha
 Occup= 2.000000
  1       0.070517801843
  2       0.163819886166
  3       0.122157741449
  4      -0.294425831264
  5      -0.028706301631
  6      -0.033260655787
  7       0.184943676713
  8       0.041392181406
  9       0.043430728887
 10       0.012516338110
 11      -0.007891609002
 12       0.004335291387
 13      -0.020861662234
 14      -0.007090820556
 15       0.026101036034
 16       0.060631911834
 17       0.045542296460
 18      -0.013049892407
 19       0.236857369959
 20       0.095580728367
 21      -0.002583768414
 22      -0.136374477709
 23      -0.042047280592
 24       0.019976440150
 25      -0.006974240348
 26       0.003864425777
 27       0.020450695424
 28      -0.006983893847
 29       0.021887122946
 30       0.050847169286
 31       0.037560705924
 32      -0.022593307705
 33       0.113374290426
 34       0.250187911197
 35       0.004249785200
 36      -0.053515436428
 37      -0.144412030937
 38      -0.028768482847
 39      -0.008418115097
 40       0.003670029798
 41      -0.006697832844
 42      -0.008727885141
 43      -0.118496491866
 44      -0.275309710432
 45      -0.205156748710
 46       0.256072748060
 47      -0.181906337125
 48      -0.160625785791
 49      -0.181595188944
 50       0.142525151109
 51       0.129119669591
 52      -0.004827808668
 53      -0.006377270734
 54       0.003480245082
 55       0.006343470436
 56      -0.008045998974
 Sym=     1a
 Ene= -5.75796351126607E-01
 Spin= Alpha
 Occup= 2.000000
  1       0.070407642450
  2       0.163793634013
  3       0.120954601833
  4      -0.025366793863
  5      -0.292837690161
  6      -0.032870909572
  7       0.039756455330
  8       0.184685421727
  9       0.043585765805
 10       0.011994046377
 11       0.004325622114
 12      -0.007496691365
 13       0.021238530542
 14      -0.006882864708
 15       0.023708578172
 16       0.055224288908
 17       0.040600915116
 18       0.240739268033
 19      -0.018719450679
 20       0.101605825178
 21      -0.138866575197
 22       0.000956852863
 23      -0.046312093150
 24       0.019927371574
 25       0.004000500013
 26      -0.007470638044
 27      -0.020864402938
 28      -0.007455137976
 29      -0.118226972622
 30      -0.274744031214
 31      -0.203382663457
 32      -0.174858003434
 33       0.254478822847
 34      -0.170183808885
 35       0.138882954099
 36      -0.181457510795
 37       0.135429314006
 38      -0.003973123810
 39       0.003433922729
 40      -0.006809109740
 41      -0.006790382612
 42      -0.007356110979
 43       0.024623799744
 44       0.057362651822
 45       0.041794041191
 46       0.106901198805
 47      -0.014631132467
 48       0.250246726975
 49      -0.048958525487
 50      -0.001543905434
 51      -0.145514164683
 52      -0.028286606696
 53       0.003896829877
 54      -0.008371261687
 55       0.007085865951
 56      -0.008072919757
 Sym=     1a
 Ene= -5.49742085451297E-01
 Spin= Alpha
 Occup= 2.000000
  1      -0.002080030169
  2      -0.005464193432
  3      -0.001287272539
  4      -0.185941724188
  5       0.258255830520
  6      -0.066013884178
  7       0.122171213599
  8      -0.172421317767
  9       0.042640582843
 10      -0.002423887035
 11      -0.025994432658
 12       0.019170297716
 13      -0.009076715786
 14       0.006965678851
 15       0.001232808941
 16       0.002726259222
 17       0.002021346435
 18       0.196686020535
 19      -0.263610002823
 20      -0.074892762533
 21      -0.130274396389
 22       0.173749416670
 23       0.049691706664
 24      -0.003043011579
 25       0.026507764261
 26      -0.019317788604
 27      -0.010131337438
 28       0.007108020653
 29      -0.001172109307
 30      -0.003225375745
 31      -0.000333354206
 32       0.186927811187
 33       0.256051620870
 34       0.062041923928
 35      -0.123384732353
 36      -0.170947391154
 37      -0.040581674871
 38      -0.001656276763
 39      -0.025866168014
 40      -0.019452533645
 41      -0.008662703203
 42      -0.007145633962
 43       0.002242146589
 44       0.005199586067
 45       0.003120224382
 46      -0.197593336506
 47      -0.259800827319
 48       0.076268723859
 49       0.131508690502
 50       0.171208416217
 51      -0.051199522738
 52      -0.002939472909
 53       0.026513941929
 54       0.019321081226
 55      -0.010070469403
 56      -0.006797661275
 Sym=     1a
 Ene= -5.44430884212181E-01
 Spin= Alpha
 Occup= 2.000000
  1      -0.001754288301
  2      -0.004712717765
  3      -0.000708978807
  4       0.194071050946
  5       0.072820368900
  6      -0.262529004721
  7      -0.130939550503
  8      -0.049811276452
  9       0.174592564274
 10      -0.009462718244
 11      -0.007115391370
 12      -0.019262660357
 13       0.002499032687
 14       0.026450186738
 15      -0.001003407641
 16      -0.002834654886
 17      -0.000081866847
 18      -0.193880745406
 19      -0.076296249086
 20      -0.264218792225
 21       0.130208322329
 22       0.051608809014
 23       0.175696339770
 24      -0.010157792024
 25       0.006884915043
 26       0.018977468509
 27       0.002140063142
 28       0.026572837705
 29       0.001135009538
 30       0.002489196506
 31       0.001884028190
 32      -0.184987367852
 33       0.065360019188
 34       0.257618309060
 35       0.123849579565
 36      -0.043667230021
 37      -0.173212946161
 38      -0.008413177972
 39      -0.006955306849
 40       0.019127868337
 41       0.002530441215
 42      -0.026040659262
 43       0.001815931817
 44       0.004206736307
 45       0.002411969506
 46       0.184744565225
 47      -0.064070546953
 48       0.260469037108
 49      -0.123137189412
 50       0.042291509124
 51      -0.175094612312
 52      -0.008470754008
 53       0.007242134879
 54      -0.019091517734
 55       0.002521343345
 56      -0.026026864535
 Sym=     1a
 Ene= 1.84002553139587E-01
 Spin= Alpha
 Occup= 0.000000
  1       0.003962285440
  2       0.009408625359
  3       0.029963159437
  4       0.257664859951
  5       0.105494156622
  6      -0.343298635105
  7      -0.376707298649
  8      -0.157205225613
  9       0.490919884818
 10      -0.000399311313
 11       0.003230132499
 12       0.007585879896
 13       0.000080483055
 14      -0.009750382482
 15      -0.003308200926
 16      -0.007773852610
 17      -0.025876525640
 18       0.180543074203
 19       0.185196498072
 20       0.341976076221
 21      -0.265668662361
 22      -0.271420972714
 23      -0.490115219070
 24       0.000033019082
 25       0.005334924655
 26       0.005428388363
 27       0.000040284758
 28       0.010068413052
 29      -0.000709997552
 30      -0.001698762439
 31      -0.005191265193
 32      -0.168121960657
 33      -0.096553829047
 34       0.076900146439
 35       0.235580548233
 36       0.134312089805
 37      -0.111366550774
 38       0.000097321511
 39      -0.002073177503
 40      -0.003923694949
 41       0.000491043891
 42       0.001994092256
 43       0.000067147348
 44       0.000109117135
 45       0.001112935025
 46      -0.245692289395
 47      -0.174338030767
 48      -0.071908885639
 49       0.346899192829
 50       0.245919315527
 51       0.102517475923
 52       0.000211289826
 53      -0.004203411642
 54      -0.006216083356
 55      -0.000603451683
 56      -0.002026661588
 Sym=     1a
 Ene= 1.86039994342491E-01
 Spin= Alpha
 Occup= 0.000000
  1       0.000734124442
  2       0.001740398950
  3       0.005603285601
  4      -0.006899146788
  5       0.046095776150
  6      -0.035507851927
  7       0.007637866905
  8      -0.066646987962
  9       0.050968355221
 10      -0.000231208305
 11       0.001068556490
 12       0.000340114581
 13       0.000288513851
 14      -0.001214445364
 15      -0.000524084483
 16      -0.001099609233
 17      -0.005679557803
 18      -0.262771427229
 19       0.302263128661
 20       0.035539154502
 21       0.376195249832
 22      -0.436090739354
 23      -0.050873227003
 24       0.000011517845
 25       0.008340607178
 26      -0.007134760140
 27       0.000166858593
 28       0.001091661239
 29      -0.000532327460
 30      -0.001120155179
 31      -0.005815200688
 32       0.265771616233
 33      -0.046135478787
 34      -0.307813765197
 35      -0.385965658243
 36       0.066938348892
 37       0.443602771192
 38       0.000487830571
 39      -0.001196669331
 40       0.007712830028
 41      -0.000193050948
 42      -0.008800433092
 43       0.000322139379
 44       0.000478828156
 45       0.005891343905
 46       0.010547661160
 47      -0.301115651156
 48       0.308873910912
 49      -0.017724406771
 50       0.434952382586
 51      -0.444653284430
 52      -0.000260197280
 53      -0.008397921428
 54       0.000433071895
 55      -0.000304320778
 56       0.008760177793
 Sym=     1a
 Ene= 1.87874358413569E-01
 Spin= Alpha
 Occup= 0.000000
  1       0.003893419864
  2       0.009217562831
  3       0.029957724410
  4      -0.251497439711
  5       0.348284863022
  6      -0.077191040910
  7       0.357328534049
  8      -0.506497030452
  9       0.106194798396
 10      -0.000057095222
 11       0.009690102511
 12      -0.006761112465
 13      -0.000362804548
 14      -0.001912098599
 15      -0.000841958354
 16      -0.002056720414
 17      -0.005733663127
 18       0.177610138485
 19      -0.086520938436
 20       0.085431923392
 21      -0.262661441409
 22       0.124146934414
 23      -0.127769483960
 24      -0.000267561355
 25      -0.002578282980
 26       0.005761786451
 27      -0.000164163581
 28       0.003005830769
 29      -0.003085929003
 30      -0.007223813882
 31      -0.024841556998
 32      -0.165615686914
 33      -0.348769731265
 34      -0.160831084622
 35       0.233303636746
 36       0.505461656317
 37       0.227427722678
 38       0.000302976420
 39      -0.009334929243
 40      -0.004317365731
 41       0.000635153266
 42      -0.004383157865
 43       0.000023920798
 44       0.000021156803
 45       0.000611607667
 46       0.263087847125
 47       0.091970916899
 48       0.170861255389
 49      -0.386540065182
 50      -0.134180877505
 51      -0.251548222431
 52       0.000013119677
 53       0.002579362518
 54       0.008061509554
 55      -0.000092162504
 56       0.005476787999
 Sym=     1a
 Ene= 2.82567020529353E-01
 Spin= Alpha
 Occup= 0.000000
  1      -0.114634212684
  2      -0.271708242396
  3      -1.108288357785
  4      -0.188432840970
  5      -0.230282423549
  6      -0.118729190275
  7       0.537598894495
  8       0.723587469313
  9       0.202239141414
 10      -0.008264775800
 11      -0.021723804290
 12      -0.011828059455
 13      -0.003306522105
 14       0.008066096153
 15       0.145706207929
 16       0.344242446652
 17       1.414639558131
 18      -0.222962151896
 19      -0.267832508026
 20       0.199945386036
 21       0.613152858114
 22       0.802787688173
 23      -0.468418647524
 24       0.005293852418
 25      -0.020454825201
 26      -0.010272787671
 27       0.003102996209
 28       0.000454616100
 29      -0.048922494661
 30      -0.116257552606
 31      -0.471633069122
 32      -0.013972142516
 33      -0.168641969847
 34       0.074294356078
 35       0.167076290637
 36       0.589569851328
 37      -0.203374150309
 38      -0.000007503946
 39      -0.024342591765
 40      -0.017171923127
 41      -0.012326227029
 42       0.003322086986
 43       0.017097602438
 44       0.040472642391
 45       0.165594535919
 46      -0.047334773833
 47      -0.130838434093
 48       0.003223001811
 49       0.236844356757
 50       0.508763417114
 51      -0.052564239585
 52       0.003723620393
 53      -0.025202756303
 54      -0.015976011254
 55       0.012201373688
 56       0.005476651759
 Sym=     1a
 Ene= 2.85925229273817E-01
 Spin= Alpha
 Occup= 0.000000
  1      -0.034489524253
  2      -0.081400354367
  3      -0.340010723141
  4       0.044351679835
  5      -0.105429093227
  6      -0.101241184929
  7      -0.284149127720
  8       0.369027678817
  9       0.364145103236
 10       0.005941238546
 11      -0.014114748722
 12       0.021815162448
 13      -0.011001051024
 14      -0.015050522391
 15      -0.067494371021
 16      -0.158878770902
 17      -0.667422923326
 18       0.161605422846
 19       0.013004254137
 20      -0.145313056583
 21      -0.537080068495
 22       0.111477008835
 23       0.458154708476
 24       0.004494460535
 25      -0.017706947000
 26       0.018222589271
 27       0.010895049424
 28      -0.013798097524
 29      -0.063828476034