[Molden Format]
[Atoms] AU
   N     1    7      0.98265751     0.99683046     0.96848457
   N     2    7     -0.98265751    -0.98738183     0.98738183
   N     3    7     -0.98265751     0.97793320    -0.97793320
   N     4    7      0.98265751    -0.98738183    -0.97793320
[GTO]
    1  0
  s      8  0
 90726.88921000     0.00003926
 13590.52880100     0.00030513
  3092.98837810     0.00160006
   875.99876362     0.00669829
   285.74469982     0.02369008
   103.11913417     0.07145541
    40.12855678     0.17632775
    16.52809570     0.32677593
  s      2  0
    69.39096098     0.08005209
    20.42820060     0.78268064
  s      1  0
     7.12925880     1.00000000
  s      1  0
     3.13243049     1.00000000
  s      1  0
     0.98755779     1.00000000
  s      1  0
     0.38765721     1.00000000
  s      1  0
     0.14909883     1.00000000
  p      5  0
   150.05742670    -0.00086216
    35.49159948    -0.00685713
    11.24786422    -0.03179569
     4.09003052    -0.10537397
     1.62205731    -0.24519708
  p      1  0
     0.66442262     1.00000000
  p      1  0
     0.27099770     1.00000000
  p      1  0
     0.10688750     1.00000000
  d      1  0
     2.83700000     1.00000000
  d      1  0
     0.96800000     1.00000000
  d      1  0
     0.33500000     1.00000000
  f      1  0
     2.02700000     1.00000000
  f      1  0
     0.68500000     1.00000000
  g      1  0
     1.42700000     1.00000000

    2  0
  s      8  0
 90726.88921000     0.00003926
 13590.52880100     0.00030513
  3092.98837810     0.00160006
   875.99876362     0.00669829
   285.74469982     0.02369008
   103.11913417     0.07145541
    40.12855678     0.17632775
    16.52809570     0.32677593
  s      2  0
    69.39096098     0.08005209
    20.42820060     0.78268064
  s      1  0
     7.12925880     1.00000000
  s      1  0
     3.13243049     1.00000000
  s      1  0
     0.98755779     1.00000000
  s      1  0
     0.38765721     1.00000000
  s      1  0
     0.14909883     1.00000000
  p      5  0
   150.05742670    -0.00086216
    35.49159948    -0.00685713
    11.24786422    -0.03179569
     4.09003052    -0.10537397
     1.62205731    -0.24519708
  p      1  0
     0.66442262     1.00000000
  p      1  0
     0.27099770     1.00000000
  p      1  0
     0.10688750     1.00000000
  d      1  0
     2.83700000     1.00000000
  d      1  0
     0.96800000     1.00000000
  d      1  0
     0.33500000     1.00000000
  f      1  0
     2.02700000     1.00000000
  f      1  0
     0.68500000     1.00000000
  g      1  0
     1.42700000     1.00000000

    3  0
  s      8  0
 90726.88921000     0.00003926
 13590.52880100     0.00030513
  3092.98837810     0.00160006
   875.99876362     0.00669829
   285.74469982     0.02369008
   103.11913417     0.07145541
    40.12855678     0.17632775
    16.52809570     0.32677593
  s      2  0
    69.39096098     0.08005209
    20.42820060     0.78268064
  s      1  0
     7.12925880     1.00000000
  s      1  0
     3.13243049     1.00000000
  s      1  0
     0.98755779     1.00000000
  s      1  0
     0.38765721     1.00000000
  s      1  0
     0.14909883     1.00000000
  p      5  0
   150.05742670    -0.00086216
    35.49159948    -0.00685713
    11.24786422    -0.03179569
     4.09003052    -0.10537397
     1.62205731    -0.24519708
  p      1  0
     0.66442262     1.00000000
  p      1  0
     0.27099770     1.00000000
  p      1  0
     0.10688750     1.00000000
  d      1  0
     2.83700000     1.00000000
  d      1  0
     0.96800000     1.00000000
  d      1  0
     0.33500000     1.00000000
  f      1  0
     2.02700000     1.00000000
  f      1  0
     0.68500000     1.00000000
  g      1  0
     1.42700000     1.00000000

    4  0
  s      8  0
 90726.88921000     0.00003926
 13590.52880100     0.00030513
  3092.98837810     0.00160006
   875.99876362     0.00669829
   285.74469982     0.02369008
   103.11913417     0.07145541
    40.12855678     0.17632775
    16.52809570     0.32677593
  s      2  0
    69.39096098     0.08005209
    20.42820060     0.78268064
  s      1  0
     7.12925880     1.00000000
  s      1  0
     3.13243049     1.00000000
  s      1  0
     0.98755779     1.00000000
  s      1  0
     0.38765721     1.00000000
  s      1  0
     0.14909883     1.00000000
  p      5  0
   150.05742670    -0.00086216
    35.49159948    -0.00685713
    11.24786422    -0.03179569
     4.09003052    -0.10537397
     1.62205731    -0.24519708
  p      1  0
     0.66442262     1.00000000
  p      1  0
     0.27099770     1.00000000
  p      1  0
     0.10688750     1.00000000
  d      1  0
     2.83700000     1.00000000
  d      1  0
     0.96800000     1.00000000
  d      1  0
     0.33500000     1.00000000
  f      1  0
     2.02700000     1.00000000
  f      1  0
     0.68500000     1.00000000
  g      1  0
     1.42700000     1.00000000

[MO]
Sym=        a    
Ene=    -15.74862
Spin=       Alpha
Occup=    2.00000
     1    0.279072613146
     2   -0.000214675520
     3    0.185741267768
     4    0.083023798718
     5    0.006338201803
     6    0.005372821398
     7    0.000541888732
     8    0.001304487700
     9    0.001313138915
    10    0.001295524710
    11    0.000498395775
    12    0.000504478669
    13    0.000493430538
    14    0.000317770428
    15    0.000341643283
    16    0.000300712850
    17   -0.000130757341
    18   -0.000133618000
    19   -0.000128336662
    20   -0.000084708384
    21   -0.000085310648
    22   -0.000084586287
    23   -0.000055056698
    24   -0.000051316957
    25   -0.000053478599
    26   -0.001932101608
    27   -0.001928398117
    28   -0.001933242668
    29    0.000323608940
    30    0.000306048095
    31    0.000316325330
    32   -0.000386890251
    33   -0.000391031492
    34   -0.000384280512
    35    0.000017989862
    36    0.000027426350
    37    0.000021941522
    38    0.000086098598
    39    0.000086278689
    40    0.000085745649
    41    0.000042393402
    42    0.000042452887
    43    0.000042452887
    44    0.000041818419
    45    0.000042168116
    46    0.000041977604
    47    0.000012004673
    48   -0.000110108241
    49   -0.000112242414
    50   -0.000108249095
    51   -0.000059777621
    52   -0.000061265601
    53   -0.000061265601
    54   -0.000063301083
    55   -0.000062852839
    56   -0.000060180746
    57    0.000001203548
    58    0.000855379392
    59    0.000853154578
    60    0.000855440208
    61   -0.000617666005
    62   -0.000570220857
    63   -0.000617227603
    64   -0.000596369438
    65   -0.000571648771
    66   -0.000598167956
    67    0.001827637657
    68    0.001878593151
    69    0.001850227173
    70   -0.000915432660
    71   -0.000915731076
    72   -0.000912589719
    73    0.264675550308
    74   -0.000203938115
    75    0.176162441279
    76    0.078792895154
    77    0.005992451796
    78    0.004916160837
    79    0.000454421411
    80   -0.001229449696
    81   -0.001233845967
    82    0.001244446339
    83   -0.000467171092
    84   -0.000466209564
    85    0.000470551127
    86   -0.000275712549
    87   -0.000257873143
    88    0.000262637104
    89    0.000122026650
    90    0.000120358733
    91   -0.000122078085
    92   -0.000075873919
    93   -0.000073035925
    94   -0.000077181053
    95   -0.000049110899
    96    0.000049675877
    97    0.000048264984
    98   -0.001764859990
    99   -0.001779208036
   100   -0.001757417215
   101    0.000289171108
   102   -0.000293133753
   103   -0.000286266900
   104   -0.000337523321
   105   -0.000333633633
   106   -0.000333666027
   107    0.000022626168
   108   -0.000023084483
   109   -0.000027389611
   110   -0.000081655143
   111   -0.000082407615
   112    0.000083121950
   113   -0.000040267714
   114   -0.000040459707
   115   -0.000040459707
   116   -0.000040203832
   117   -0.000040459280
   118    0.000040757049
   119    0.000011842217
   120    0.000102073072
   121    0.000101324810
   122   -0.000102668485
   123    0.000056885992
   124    0.000056203051
   125    0.000056203051
   126    0.000057841668
   127    0.000058187400
   128   -0.000058022008
   129    0.000001526705
   130    0.000780838816
   131    0.000791607218
   132    0.000771545154
   133   -0.000554759452
   134    0.000556609474
   135   -0.000551635789
   136    0.000544770215
   137    0.000557682907
   138    0.000543382489
   139    0.001706293289
   140    0.001691243677
   141    0.001713752944
   142    0.000866370470
   143    0.000875275754
   144   -0.000866427780
   145    0.288884257829
   146   -0.000222185835
   147    0.192268955711
   148    0.085901649903
   149    0.006574426123
   150    0.005706828528
   151    0.000605773523
   152   -0.001359923240
   153    0.001342623874
   154   -0.001355477997
   155   -0.000524502184
   156    0.000520010289
   157   -0.000524692342
   158   -0.000350599084
   159    0.000366894095
   160   -0.000363749743
   161    0.000137214434
   162   -0.000137533055
   163    0.000138482244
   164   -0.000090989993
   165   -0.000089563947
   166   -0.000093638523
   167    0.000056466756
   168   -0.000056462065
   169    0.000057438315
   170   -0.002052850337
   171   -0.002061030174
   172   -0.002039707669
   173   -0.000334037606
   174    0.000335381131
   175   -0.000338639264
   176   -0.000423619954
   177   -0.000428141719
   178   -0.000426755424
   179   -0.000021242695
   180    0.000023674360
   181   -0.000017954795
   182   -0.000089157795
   183    0.000087533373
   184   -0.000088502738
   185   -0.000043373401
   186    0.000042950148
   187    0.000042950148
   188   -0.000043369515
   189    0.000042811666
   190   -0.000043151553
   191    0.000012154281
   192    0.000116360449
   193   -0.000115717582
   194    0.000116803527
   195    0.000064109172
   196   -0.000064613758
   197   -0.000064613758
   198    0.000065446030
   199   -0.000064121739
   200    0.000063791561
   201    0.000001011677
   202    0.000908130551
   203    0.000918911659
   204    0.000897946548
   205    0.000628299023
   206   -0.000624901718
   207    0.000626859051
   208    0.000636954605
   209   -0.000628505381
   210    0.000635908816
   211    0.001970288376
   212    0.001960611361
   213    0.001951554983
   214    0.000954289534
   215   -0.000954509324
   216    0.000947970648
   217    0.275117445213
   218   -0.000211893879
   219    0.183109898972
   220    0.081857523790
   221    0.006242471030
   222    0.005264447750
   223    0.000522616532
   224    0.001286341099
   225   -0.001290978381
   226   -0.001282187694
   227    0.000491946858
   228   -0.000490897227
   229   -0.000492098620
   230    0.000307304921
   231   -0.000288835157
   232   -0.000319896501
   233   -0.000128931417
   234    0.000127158440
   235    0.000130101890
   236   -0.000082076945
   237   -0.000079188990
   238   -0.000084663681
   239    0.000051316498
   240    0.000053703256
   241   -0.000052255639
   242   -0.001891890150
   243   -0.001906472652
   244   -0.001879021401
   245   -0.000304485050
   246   -0.000315981662
   247    0.000308952662
   248   -0.000375044265
   249   -0.000371011458
   250   -0.000378046910
   251   -0.000026682608
   252   -0.000019079827
   253    0.000023565561
   254    0.000084977828
   255   -0.000085763934
   256   -0.000084356141
   257    0.000041770548
   258   -0.000041875906
   259   -0.000041875906
   260    0.000041477543
   261   -0.000041844092
   262   -0.000041468834
   263    0.000011988916
   264   -0.000108238262
   265    0.000107486522
   266    0.000108685116
   267   -0.000061174944
   268    0.000060829935
   269    0.000060829935
   270   -0.000060001772
   271    0.000059975027
   272    0.000061234591
   273    0.000001270050
   274    0.000837614659
   275    0.000848547962
   276    0.000827621211
   277    0.000574169822
   278    0.000598612044
   279    0.000576753302
   280   -0.000580680634
   281    0.000596261653
   282   -0.000587410543
   283    0.001838321645
   284    0.001797097374
   285    0.001819832914
   286   -0.000904614637
   287    0.000913751165
   288    0.000898496760
Sym=        a    
Ene=    -15.74770
Spin=       Alpha
Occup=    2.00000
     1   -0.168672987449
     2    0.000118209199
     3   -0.112215401911
     4   -0.049736587268
     5   -0.004112056462
     6   -0.004563340806
     7   -0.000781835499
     8   -0.000743716172
     9   -0.000826382776
    10   -0.000756098039
    11   -0.000400050692
    12   -0.000269565432
    13   -0.000376273632
    14   -0.001066864515
    15   -0.000124942330
    16   -0.000869689663
    17    0.000125343362
    18    0.000047081154
    19    0.000107387571
    20    0.000150164213
    21    0.000100186784
    22    0.000140318761
    23    0.000024230406
    24    0.000097744653
    25    0.000006358588
    26    0.001515625679
    27    0.001800108002
    28    0.001571622367
    29   -0.000172529196
    30   -0.000549725379
    31   -0.000082128147
    32    0.000620394390
    33    0.000450521872
    34    0.000585511406
    35   -0.000007361183
    36    0.000171532576
    37   -0.000051904491
    38   -0.000029208090
    39   -0.000055728708
    40   -0.000033996235
    41   -0.000016519308
    42   -0.000021920261
    43   -0.000021920261
    44   -0.000012667776
    45   -0.000022994940
    46   -0.000018274873
    47   -0.000001057273
    48    0.000114904993
    49    0.000067244555
    50    0.000104593779
    51    0.000065678402
    52    0.000035437154
    53    0.000035437154
    54    0.000034739439
    55    0.000043378485
    56    0.000067633852
    57    0.000001401153
    58   -0.000623225050
    59   -0.000782706987
    60   -0.000652091250
    61    0.000283852741
    62    0.001001393802
    63    0.000303740445
    64    0.000129006421
    65    0.000999235542
    66    0.000121578382
    67   -0.001531056351
    68   -0.000902357903
    69   -0.001692559780
    70    0.000253174855
    71    0.000808643670
    72    0.000355113024
    73   -0.083416179290
    74    0.000058721896
    75   -0.055497868337
    76   -0.024607901874
    77   -0.002025493345
    78   -0.002220641779
    79   -0.000378894847
    80    0.000432243001
    81    0.000351592527
    82   -0.000361825954
    83    0.000098747388
    84    0.000204679182
    85   -0.000190109001
    86   -0.000239812028
    87    0.000647515678
    88   -0.000551514601
    89    0.000003052440
    90   -0.000073997465
    91    0.000065813320
    92    0.000034026055
    93    0.000077245546
    94    0.000073112658
    95   -0.000003451945
    96    0.000011982282
    97   -0.000074612429
    98    0.000953164162
    99    0.000705005403
   100    0.000728192353
   101   -0.000006164974
   102   -0.000036857052
   103    0.000404084543
   104    0.000166569138
   105    0.000320103476
   106    0.000302865257
   107   -0.000038894792
   108    0.000061864009
   109   -0.000148505460
   110    0.000035164333
   111    0.000011438690
   112   -0.000014377880
   113    0.000013085719
   114    0.000008866809
   115    0.000008866809
   116    0.000013541555
   117    0.000004209032
   118   -0.000004912272
   119   -0.000000665997
   120   -0.000017215091
   121   -0.000062094752
   122    0.000056866795
   123   -0.000014002308
   124   -0.000041226043
   125   -0.000041226043
   126   -0.000018309163
   127   -0.000009451995
   128    0.000006463716
   129    0.000000894252
   130   -0.000415451159
   131   -0.000293667237
   132   -0.000305159366
   133    0.000016824456
   134    0.000069137298
   135   -0.000008589446
   136   -0.000733005913
   137    0.000088458614
   138   -0.000737164540
   139   -0.000874222582
   140   -0.000949449812
   141   -0.000217043967
   142   -0.000552181453
   143   -0.000028875919
   144    0.000080650122
   145    0.464575610617
   146   -0.000325964047
   147    0.309074622638
   148    0.136939665862
   149    0.011320585124
   150    0.012772079168
   151    0.002225171376
   152   -0.002135059654
   153    0.002115365035
   154   -0.002147182668
   155   -0.000958872171
   156    0.000910765616
   157   -0.000930802184
   158   -0.002029799929
   159    0.001852008889
   160   -0.001827028493
   161    0.000267224634
   162   -0.000254236133
   163    0.000249199552
   164   -0.000364689990
   165   -0.000351706869
   166   -0.000357139853
   167    0.000121168991
   168   -0.000120590043
   169    0.000102206224
   170   -0.004524312732
   171   -0.004600613784
   172   -0.004570969988
   173   -0.000755355079
   174    0.000757244992
   175   -0.000658018921
   176   -0.001571009100
   177   -0.001539999034
   178   -0.001535847588
   179    0.000118550226
   180   -0.000111876721
   181    0.000071763209
   182   -0.000108071958
   183    0.000111664222
   184   -0.000113245237
   185   -0.000047919791
   186    0.000048784140
   187    0.000048784140
   188   -0.000048542549
   189    0.000049907662
   190   -0.000049935835
   191    0.000002448062
   192    0.000268730855
   193   -0.000256814991
   194    0.000258295366
   195    0.000126395294
   196   -0.000119559417
   197   -0.000119559417
   198    0.000128607917
   199   -0.000127791774
   200    0.000128021761
   201   -0.000004604929
   202    0.001909707764
   203    0.001971236420
   204    0.001930616301
   205    0.001324917451
   206   -0.001332022463
   207    0.001327447132
   208    0.001145929603
   209   -0.001335157809
   210    0.001146955136
   211    0.003827979052
   212    0.003829788995
   213    0.003981309928
   214    0.001155080146
   215   -0.001293170025
   216    0.001270551162
   217   -0.236473268340
   218    0.000166471263
   219   -0.157327410716
   220   -0.069732739481
   221   -0.005743954471
   222   -0.006401049896
   223   -0.001109629580
   224   -0.001053805403
   225    0.001067066252
   226    0.001125179988
   227   -0.000496692083
   228    0.000486392311
   229    0.000400898868
   230   -0.001229335528
   231    0.001123205094
   232    0.000427533052
   233    0.000156067174
   234   -0.000147274075
   235   -0.000086775716
   236    0.000190474527
   237    0.000183672622
   238    0.000152859815
   239   -0.000105069985
   240   -0.000036951295
   241    0.000026499936
   242    0.002208092528
   243    0.002245385999
   244    0.002426430588
   245    0.000604838798
   246    0.000257045411
   247   -0.000203852158
   248    0.000816255947
   249    0.000797164005
   250    0.000678193633
   251   -0.000166070903
   252   -0.000000532624
   253   -0.000024565098
   254   -0.000049719638
   255    0.000052708623
   256    0.000071098115
   257   -0.000021379007
   258    0.000021940664
   259    0.000021940664
   260   -0.000025339589
   261    0.000026585626
   262    0.000029781246
   263   -0.000001544387
   264    0.000144425285
   265   -0.000139549923
   266   -0.000104075951
   267    0.000051381887
   268   -0.000048176707
   269   -0.000048176707
   270    0.000079994905
   271   -0.000080887090
   272   -0.000059496199
   273    0.000002209128
   274   -0.000936484263
   275   -0.000957728304
   276   -0.001041294927
   277   -0.001082477350
   278   -0.000432063668
   279   -0.001084642306
   280    0.000333659480
   281   -0.000451430731
   282    0.000355842662
   283   -0.001558555405
   284   -0.002121924979
   285   -0.002216984519
   286    0.000440954496
   287   -0.000505210950
   288   -0.000917003626
Sym=        a    
Ene=    -15.74768
Spin=       Alpha
Occup=    2.00000
     1    0.444454992857
     2   -0.000312131073
     3    0.295696845238
     4    0.131027043183
     5    0.010804602563
     6    0.012162262954
     7    0.002145877940
     8    0.002048382234
     9    0.002027508249
    10    0.002018022681
    11    0.000842075195
    12    0.000875306599
    13    0.000880478434
    14    0.001578998905
    15    0.001920728916
    16    0.001809792287
    17   -0.000230432919
    18   -0.000263935305
    19   -0.000246675056
    20   -0.000325518998
    21   -0.000340740758
    22   -0.000338919993
    23   -0.000099508359
    24   -0.000094068361
    25   -0.000124679095
    26   -0.004407033545
    27   -0.004319909342
    28   -0.004330536771
    29    0.000635582959
    30    0.000613060314
    31    0.000766408364
    32   -0.001427883996
    33   -0.001485667652
    34   -0.001470482900
    35   -0.000077048375
    36   -0.000059909389
    37   -0.000136410681
    38    0.000113321352
    39    0.000105779463
    40    0.000105303348
    41    0.000048912677
    42    0.000048179997
    43    0.000048179997
    44    0.000049790046
    45    0.000046983321
    46    0.000045619444
    47    0.000002460447
    48   -0.000235284450
    49   -0.000253202353
    50   -0.000246337484
    51   -0.000113933005
    52   -0.000124460138
    53   -0.000124460138
    54   -0.000117942261
    55   -0.000114815038
    56   -0.000111487555
    57   -0.000004368782
    58    0.001885266192
    59    0.001848924478
    60    0.001837896287
    61   -0.001111148503
    62   -0.001071285161
    63   -0.001100983638
    64   -0.001351306683
    65   -0.001068782247
    66   -0.001351481471
    67    0.003767712141
    68    0.003838121128
    69    0.003566119164
    70   -0.001269282723
    71   -0.001098862748
    72   -0.001102835273
    73   -0.138834839049
    74    0.000098157957
    75   -0.092372959063
    76   -0.040946853624
    77   -0.003353220161
    78   -0.003747251387
    79   -0.000667040414
    80    0.000618659528
    81    0.000587120844
    82   -0.000683682979
    83    0.000249384776
    84    0.000295337302
    85   -0.000207280072
    86    0.000566713658
    87    0.000933675711
    88   -0.000047553838
    89   -0.000082016384
    90   -0.000114728122
    91    0.000034040244
    92    0.000099362732
    93    0.000117252340
    94    0.000076925494
    95    0.000076449653
    96    0.000009570987
    97   -0.000025062491
    98    0.001338176125
    99    0.001235625884
   100    0.001467837646
   101   -0.000426484253
   102   -0.000008050752
   103    0.000168182841
   104    0.000446513722
   105    0.000511450467
   106    0.000358399290
   107    0.000136718505
   108    0.000073210480
   109   -0.000012095046
   110    0.000034137070
   111    0.000024380702
   112   -0.000048049906
   113    0.000012616437
   114    0.000010912121
   115    0.000010912121
   116    0.000018208320
   117    0.000014371220
   118   -0.000018094241
   119   -0.000000896192
   120   -0.000074497283
   121   -0.000092843659
   122    0.000050553435
   123   -0.000017431114
   124   -0.000028933785
   125   -0.000028933785
   126   -0.000053464843
   127   -0.000050211842
   128    0.000023583973
   129    0.000000960123
   130   -0.000585761107
   131   -0.000533364276
   132   -0.000631878918
   133    0.000763487589
   134    0.000040417465
   135    0.000758728127
   136   -0.000281098369
   137    0.000027668613
   138   -0.000301925664
   139   -0.000793075778
   140   -0.001514357531
   141   -0.001219192744
   142   -0.000319703740
   143   -0.000109764762
   144    0.000610552344
   145   -0.016330160019
   146    0.000011132688
   147   -0.010861407586
   148   -0.004815520648
   149   -0.000407514346
   150   -0.000434557778
   151   -0.000066190780
   152    0.000063596213
   153   -0.000126764291
   154    0.000044684195
   155    0.000077881857
   156    0.000035249037
   157    0.000100279637
   158    0.000277256344
   159    0.000514499451
   160    0.000474846185
   161   -0.000025997281
   162   -0.000041889197
   163   -0.000042878227
   164    0.000026312873
   165   -0.000014042798
   166    0.000035209692
   167    0.000033247841
   168    0.000062665917
   169    0.000012955608
   170    0.000091166466
   171    0.000321518327
   172    0.000039132324
   173   -0.000164618596
   174   -0.000325406201
   175   -0.000061123198
   176    0.000092893655
   177   -0.000046935114
   178    0.000125638740
   179    0.000090834109
   180    0.000145570069
   181    0.000042021006
   182   -0.000002720926
   183   -0.000019071147
   184   -0.000008047871
   185    0.000002318319
   186   -0.000006729245
   187   -0.000006729245
   188   -0.000003022966
   189   -0.000005574704
   190    0.000000221351
   191   -0.000000176979
   192   -0.000021669872
   193   -0.000019511796
   194   -0.000031773599
   195   -0.000028284032
   196    0.000002911070
   197    0.000002911070
   198    0.000012751753
   199   -0.000005456237
   200   -0.000025959623
   201    0.000000554841
   202   -0.000021847132
   203   -0.000149303356
   204    0.000000609953
   205    0.000315840398
   206    0.000611697920
   207    0.000295438343
   208    0.000101718689
   209    0.000601326494
   210    0.000127865232
   211   -0.000439001206
   212    0.000376015540
   213   -0.000272638450
   214    0.000061252468
   215    0.000410345629
   216    0.000183056963
   217   -0.300130086601
   218    0.000210967055
   219   -0.199677638941
   220   -0.088490419346
   221   -0.007293109095
   222   -0.008176584993
   223   -0.001433115924
   224   -0.001413100042
   225    0.001348854925
   226    0.001356115033
   227   -0.000532956910
   228    0.000626693671
   229    0.000599269185
   230   -0.000747320766
   231    0.001494408722
   232    0.001319398040
   233    0.000127481541
   234   -0.000194034834
   235   -0.000177448577
   236    0.000203691931
   237    0.000239021220
   238    0.000232607454
   239   -0.000057610107
   240   -0.000043019302
   241    0.000114499718
   242    0.003048925888
   243    0.002844757912
   244    0.002884342939
   245    0.000382145490
   246    0.000307239274
   247   -0.000671069220
   248    0.000903160358
   249    0.001033979743
   250    0.001001537054
   251   -0.000027353888
   252    0.000010171481
   253    0.000165421259
   254   -0.000084953132
   255    0.000065008910
   256    0.000069350322
   257   -0.000035325878
   258    0.000031797091
   259    0.000031797091
   260   -0.000036276996
   261    0.000028468203
   262    0.000029128197
   263   -0.000001808147
   264    0.000143045361
   265   -0.000180530165
   266   -0.000171762017
   267    0.000071608709
   268   -0.000095095876
   269   -0.000095095876
   270    0.000078336066
   271   -0.000071430258
   272   -0.000065537309
   273    0.000002885247
   274   -0.001308534896
   275   -0.001207236884
   276   -0.001227862063
   277   -0.000671716191
   278   -0.000532579949
   279   -0.000654842767
   280    0.001199377837
   281   -0.000516600459
   282    0.001193777140
   283   -0.002624537320
   284   -0.002744885914
   285   -0.002142588697
   286    0.001044892614
   287   -0.000612851507
   288   -0.000703019723
Sym=        a    
Ene=    -15.74765
Spin=       Alpha
Occup=    2.00000
     1   -0.057161137226
     2    0.000040447659
     3   -0.038032560121
     4   -0.016844271201
     5   -0.001377300581
     6   -0.001600317298
     7   -0.000301152178
     8   -0.000219044740
     9   -0.000245114819
    10   -0.000308122551
    11   -0.000135279705
    12   -0.000106315115
    13   -0.000040049758
    14   -0.000597104531
    15   -0.000344830839
    16    0.000305107156
    17    0.000067204564
    18    0.000044783621
    19   -0.000015817555
    20    0.000057263806
    21    0.000045428613
    22    0.000016869245
    23    0.000061977700
    24   -0.000001311857
    25   -0.000026457572
    26    0.000475817514
    27    0.000544313049
    28    0.000710129387
    29   -0.000330450300
    30   -0.000010498040
    31    0.000117396619
    32    0.000253245303
    33    0.000210266648
    34    0.000101814405
    35    0.000132761371
    36   -0.000022146140
    37   -0.000083151693
    38   -0.000005039578
    39   -0.000011942135
    40   -0.000028563300
    41   -0.000001710670
    42   -0.000002908776
    43   -0.000002908776
    44   -0.000005887965
    45   -0.000008706495
    46   -0.000011141752
    47   -0.000000246776
    48    0.000048015144
    49    0.000035637698
    50    0.000003559669
    51    0.000004857804
    52   -0.000002562308
    53   -0.000002562308
    54    0.000031110787
    55    0.000033471908
    56    0.000014377714
    57    0.000000729966
    58   -0.000210579072
    59   -0.000242322733
    60   -0.000310160500
    61    0.000586896445
    62   -0.000000871198
    63    0.000599906099
    64   -0.000236207435
    65    0.000023689119
    66   -0.000209125683
    67   -0.000093330155
    68   -0.000615733181
    69   -0.000822223962
    70   -0.000107776233
    71    0.000045907039
    72    0.000424586067
    73    0.459189912078
    74   -0.000322659500
    75    0.305506552194
    76    0.135399334173
    77    0.011142093244
    78    0.012469542181
    79    0.002212489409
    80   -0.002074692600
    81   -0.002103817805
    82    0.002098861697
    83   -0.000876451659
    84   -0.000848555291
    85    0.000908682681
    86   -0.001834473977
    87   -0.001581347662
    88    0.001925327329
    89    0.000261394242
    90    0.000239244494
    91   -0.000267533016
    92   -0.000342478118
    93   -0.000327328059
    94   -0.000350904550
    95   -0.000091700131
    96    0.000127227916
    97    0.000102151378
    98   -0.004453255378
    99   -0.004536641946
   100   -0.004402962084
   101    0.000597502557
   102   -0.000782350905
   103   -0.000655687992
   104   -0.001494783930
   105   -0.001450160735
   106   -0.001510169002
   107   -0.000055777616
   108    0.000136451759
   109    0.000075541166
   110   -0.000111037696
   111   -0.000118140562
   112    0.000109860232
   113   -0.000050393469
   114   -0.000051749459
   115   -0.000051749459
   116   -0.000048720956
   117   -0.000051546105
   118    0.000049954651
   119    0.000002798658
   120    0.000250955148
   121    0.000238529496
   122   -0.000258153811
   123    0.000126813807
   124    0.000118997069
   125    0.000118997069
   126    0.000114072196
   127    0.000116782760
   128   -0.000128304232
   129   -0.000004504253