[Molden Format]
[Atoms] AU
   N     1    7      0.98265751     0.99683046     0.96848457
   N     2    7     -0.98265751    -0.98738183     0.98738183
   N     3    7     -0.98265751     0.97793320    -0.97793320
   N     4    7      0.98265751    -0.98738183    -0.97793320
[GTO]
    1  0
  s      8  0
 90726.88921000     0.00003926
 13590.52880100     0.00030513
  3092.98837810     0.00160006
   875.99876362     0.00669829
   285.74469982     0.02369008
   103.11913417     0.07145541
    40.12855678     0.17632775
    16.52809570     0.32677593
  s      2  0
    69.39096098     0.08005209
    20.42820060     0.78268064
  s      1  0
     7.12925880     1.00000000
  s      1  0
     3.13243049     1.00000000
  s      1  0
     0.98755779     1.00000000
  s      1  0
     0.38765721     1.00000000
  s      1  0
     0.14909883     1.00000000
  p      5  0
   150.05742670    -0.00086216
    35.49159948    -0.00685713
    11.24786422    -0.03179569
     4.09003052    -0.10537397
     1.62205731    -0.24519708
  p      1  0
     0.66442262     1.00000000
  p      1  0
     0.27099770     1.00000000
  p      1  0
     0.10688750     1.00000000
  d      1  0
     2.83700000     1.00000000
  d      1  0
     0.96800000     1.00000000
  d      1  0
     0.33500000     1.00000000
  f      1  0
     2.02700000     1.00000000
  f      1  0
     0.68500000     1.00000000
  g      1  0
     1.42700000     1.00000000

    2  0
  s      8  0
 90726.88921000     0.00003926
 13590.52880100     0.00030513
  3092.98837810     0.00160006
   875.99876362     0.00669829
   285.74469982     0.02369008
   103.11913417     0.07145541
    40.12855678     0.17632775
    16.52809570     0.32677593
  s      2  0
    69.39096098     0.08005209
    20.42820060     0.78268064
  s      1  0
     7.12925880     1.00000000
  s      1  0
     3.13243049     1.00000000
  s      1  0
     0.98755779     1.00000000
  s      1  0
     0.38765721     1.00000000
  s      1  0
     0.14909883     1.00000000
  p      5  0
   150.05742670    -0.00086216
    35.49159948    -0.00685713
    11.24786422    -0.03179569
     4.09003052    -0.10537397
     1.62205731    -0.24519708
  p      1  0
     0.66442262     1.00000000
  p      1  0
     0.27099770     1.00000000
  p      1  0
     0.10688750     1.00000000
  d      1  0
     2.83700000     1.00000000
  d      1  0
     0.96800000     1.00000000
  d      1  0
     0.33500000     1.00000000
  f      1  0
     2.02700000     1.00000000
  f      1  0
     0.68500000     1.00000000
  g      1  0
     1.42700000     1.00000000

    3  0
  s      8  0
 90726.88921000     0.00003926
 13590.52880100     0.00030513
  3092.98837810     0.00160006
   875.99876362     0.00669829
   285.74469982     0.02369008
   103.11913417     0.07145541
    40.12855678     0.17632775
    16.52809570     0.32677593
  s      2  0
    69.39096098     0.08005209
    20.42820060     0.78268064
  s      1  0
     7.12925880     1.00000000
  s      1  0
     3.13243049     1.00000000
  s      1  0
     0.98755779     1.00000000
  s      1  0
     0.38765721     1.00000000
  s      1  0
     0.14909883     1.00000000
  p      5  0
   150.05742670    -0.00086216
    35.49159948    -0.00685713
    11.24786422    -0.03179569
     4.09003052    -0.10537397
     1.62205731    -0.24519708
  p      1  0
     0.66442262     1.00000000
  p      1  0
     0.27099770     1.00000000
  p      1  0
     0.10688750     1.00000000
  d      1  0
     2.83700000     1.00000000
  d      1  0
     0.96800000     1.00000000
  d      1  0
     0.33500000     1.00000000
  f      1  0
     2.02700000     1.00000000
  f      1  0
     0.68500000     1.00000000
  g      1  0
     1.42700000     1.00000000

    4  0
  s      8  0
 90726.88921000     0.00003926
 13590.52880100     0.00030513
  3092.98837810     0.00160006
   875.99876362     0.00669829
   285.74469982     0.02369008
   103.11913417     0.07145541
    40.12855678     0.17632775
    16.52809570     0.32677593
  s      2  0
    69.39096098     0.08005209
    20.42820060     0.78268064
  s      1  0
     7.12925880     1.00000000
  s      1  0
     3.13243049     1.00000000
  s      1  0
     0.98755779     1.00000000
  s      1  0
     0.38765721     1.00000000
  s      1  0
     0.14909883     1.00000000
  p      5  0
   150.05742670    -0.00086216
    35.49159948    -0.00685713
    11.24786422    -0.03179569
     4.09003052    -0.10537397
     1.62205731    -0.24519708
  p      1  0
     0.66442262     1.00000000
  p      1  0
     0.27099770     1.00000000
  p      1  0
     0.10688750     1.00000000
  d      1  0
     2.83700000     1.00000000
  d      1  0
     0.96800000     1.00000000
  d      1  0
     0.33500000     1.00000000
  f      1  0
     2.02700000     1.00000000
  f      1  0
     0.68500000     1.00000000
  g      1  0
     1.42700000     1.00000000

[MO]
Sym=        a    
Ene=    -15.75093
Spin=       Alpha
Occup=    2.00000
     1    0.238676106583
     2    0.006751325476
     3    0.137748658578
     4    0.086489916061
     5    0.055193482097
     6    0.008973215742
     7   -0.031117745671
     8    0.001371940940
     9    0.001465678981
    10    0.001192712985
    11   -0.006656867621
    12   -0.007997632142
    13   -0.003404909132
    14    0.018977106737
    15    0.025380528151
    16    0.003726924820
    17    0.001885777984
    18    0.002190350053
    19    0.001314139910
    20   -0.009223885187
    21   -0.009189457955
    22   -0.009271696364
    23   -0.000115535481
    24   -0.000406479845
    25   -0.000311653717
    26   -0.003216409035
    27   -0.003106199739
    28   -0.003566975165
    29    0.001064888141
    30    0.001328315150
    31    0.001220106298
    32    0.000992421089
    33   -0.000392484653
    34    0.004233494618
    35   -0.005163222218
    36    0.003190167064
    37    0.000718860110
    38    0.000021357563
    39   -0.000050536785
    40    0.000135533600
    41   -0.000343892322
    42   -0.000347093175
    43   -0.000347093175
    44    0.000122591854
    45   -0.000020780147
    46   -0.000000180570
    47    0.000329541993
    48   -0.002029962286
    49   -0.002739794844
    50   -0.000418195713
    51    0.000000422630
    52   -0.000015252406
    53   -0.000015252406
    54   -0.001092890818
    55   -0.000775425750
    56   -0.000725396403
    57   -0.001888503322
    58    0.000349828063
    59    0.000484567648
    60    0.000103445685
    61    0.000236896471
    62   -0.000091792829
    63    0.000361242368
    64    0.000128063576
    65   -0.000339552211
    66   -0.000249258902
    67    0.000218964648
    68    0.000169764104
    69    0.000177842255
    70    0.000233838418
    71    0.000285917775
    72    0.000119010043
    73    0.327914386382
    74    0.008560879806
    75    0.189830656540
    76    0.118805118601
    77    0.084329520373
    78    0.005732089702
    79   -0.011555818399
    80   -0.003247930159
    81   -0.003172493736
    82    0.003281539172
    83   -0.000581033763
    84   -0.001869853000
    85    0.000023591240
    86   -0.020817121855
    87   -0.014307663465
    88    0.022979155166
    89    0.001569880838
    90    0.001805931964
    91   -0.001462593677
    92   -0.012199171926
    93   -0.012221231182
    94   -0.012167453636
    95    0.000214025095
    96   -0.000321886163
    97   -0.000233243328
    98   -0.003718934759
    99   -0.003854198238
   100   -0.003713321547
   101    0.000518254235
   102   -0.000463271151
   103   -0.000552638940
   104    0.008907603676
   105    0.010257418226
   106    0.008107764671
   107   -0.009024356481
   108    0.012430062193
   109    0.009939992252
   110    0.001031818056
   111    0.000982802814
   112   -0.001054154903
   113    0.000735615853
   114    0.000725011283
   115    0.000725011283
   116    0.000933055058
   117    0.000786464626
   118   -0.000782015435
   119   -0.000958338366
   120    0.006260679068
   121    0.005549768032
   122   -0.006384496040
   123    0.000527571408
   124    0.000530826374
   125    0.000530826374
   126   -0.000023731828
   127    0.000303079470
   128   -0.000398319969
   129    0.003604879481
   130    0.000985116982
   131    0.000874048883
   132    0.001029654481
   133    0.000465336920
   134   -0.000563601083
   135    0.000340959099
   136   -0.000350464116
   137   -0.000576346760
   138   -0.000486864071
   139    0.000627608277
   140    0.000611279399
   141    0.000604397561
   142    0.000090786137
   143    0.000141211498
   144   -0.000091560866
   145    0.246765587515
   146    0.006982043100
   147    0.142342249587
   148    0.089647299685
   149    0.057735079823
   150    0.008698750285
   151   -0.029350345231
   152   -0.001338459919
   153    0.001646168390
   154   -0.001550483390
   155    0.003090310955
   156   -0.007664154522
   157    0.005903644765
   158   -0.003902216668
   159    0.026974739413
   160   -0.018669189995
   161   -0.001020112690
   162    0.001841723281
   163   -0.001579796898
   164   -0.009558424304
   165   -0.009472213016
   166   -0.009504399665
   167    0.000274006951
   168   -0.000389334060
   169    0.000067484124
   170   -0.003571666842
   171   -0.003104395718
   172   -0.003263427707
   173   -0.001223850559
   174    0.001329034503
   175   -0.001034783189
   176    0.004661851947
   177    0.000107914567
   178    0.001749173551
   179    0.000394831045
   180    0.002881245099
   181    0.006263597056
   182   -0.000058334112
   183   -0.000147216917
   184    0.000078454766
   185    0.000066335609
   186   -0.000110249693
   187   -0.000110249693
   188   -0.000119471352
   189   -0.000433066614
   190    0.000418702269
   191    0.000222065563
   192    0.000614589607
   193   -0.003319284099
   194    0.002350898727
   195    0.000706389205
   196   -0.000718229397
   197   -0.000718229397
   198    0.001149246738
   199    0.000054981474
   200   -0.000041438938
   201   -0.001467647314
   202    0.000138697001
   203    0.000564113508
   204    0.000403475486
   205    0.000227896083
   206   -0.000355375487
   207   -0.000205946813
   208   -0.000416716755
   209   -0.000062927377
   210   -0.000256373212
   211    0.000229597732
   212    0.000213610414
   213    0.000251584507
   214   -0.000095654279
   215    0.000275842015
   216   -0.000211481595
   217    0.271688495646
   218    0.007498876751
   219    0.156856625636
   220    0.098704358134
   221    0.065860691919
   222    0.007785523729
   223   -0.023994771443
   224    0.002149123640
   225   -0.001821550136
   226   -0.002115297396
   227   -0.005284957194
   228    0.000850409174
   229    0.004900635426
   230    0.025726537112
   231   -0.002638485407
   232   -0.023872835848
   233    0.000874993093
   234    0.000031368477
   235   -0.000776011464
   236   -0.010316309611
   237   -0.010405870949
   238   -0.010328704339
   239    0.000185288846
   240   -0.000111564062
   241   -0.000210224228
   242   -0.003292959039
   243   -0.003762102643
   244   -0.003320851792
   245   -0.001084537876
   246   -0.000803639969
   247    0.001094209880
   248    0.002577870637
   249    0.007211730341
   250    0.002987349492
   251    0.001495451491
   252    0.009882967323
   253   -0.000718958058
   254   -0.000423895611
   255    0.000208190177
   256    0.000398493769
   257   -0.000218539528
   258    0.000171933102
   259    0.000171933102
   260   -0.000676034769
   261    0.000122968730
   262    0.000173701716
   263   -0.000131046043
   264   -0.004255380783
   265    0.001572458503
   266    0.004036397268
   267   -0.000853291999
   268    0.000824347850
   269    0.000824347850
   270    0.000245282426
   271    0.000964619554
   272    0.000938245154
   273    0.000051873821
   274    0.000705799577
   275    0.000286464201
   276    0.000663811176
   277   -0.000229445119
   278   -0.000527553492
   279    0.000202922765
   280   -0.000234499508
   281   -0.000491763536
   282    0.000184357203
   283    0.000340995511
   284    0.000367539099
   285    0.000340645011
   286    0.000167001579
   287    0.000009992469
   288   -0.000155796826
Sym=        a    
Ene=    -15.74165
Spin=       Alpha
Occup=    2.00000
     1   -0.348629994930
     2   -0.032126676374
     3   -0.149699271644
     4   -0.206149117624
     5   -0.056272328744
     6   -0.009710638299
     7   -0.013415850808
     8   -0.000992191255
     9   -0.001292821172
    10   -0.000942885109
    11    0.016221809316
    12    0.013667551725
    13    0.016532597943
    14   -0.016689175974
    15   -0.013934933148
    16   -0.017017253783
    17    0.007049104670
    18    0.005311413577
    19    0.007266057606
    20    0.024092807103
    21    0.022897016783
    22    0.024165386494
    23    0.000644959600
    24    0.001177375779
    25    0.000677991017
    26    0.002432050912
    27    0.006195744263
    28    0.002139569059
    29   -0.001665886809
    30   -0.002173018635
    31   -0.001721469178
    32   -0.000529805719
    33    0.002758642932
    34   -0.000648911356
    35   -0.002031185253
    36   -0.004671394422
    37   -0.002106780654
    38   -0.001014422393
    39   -0.000716948689
    40   -0.001041707865
    41   -0.000369466900
    42   -0.000362041979
    43   -0.000362041979
    44   -0.000520379991
    45   -0.000363114474
    46   -0.000371858689
    47   -0.000364395995
    48    0.003922314199
    49    0.002775572156
    50    0.003905373134
    51    0.001011937994
    52    0.001834792928
    53    0.001834792928
    54    0.003819427468
    55    0.001998833577
    56    0.001119835030
    57    0.001332044866
    58   -0.001075932911
    59   -0.001830029867
    60   -0.000991984075
    61   -0.000385953088
    62   -0.001120474426
    63   -0.000187509241
    64   -0.000239087171
    65   -0.001092835059
    66   -0.000443680252
    67   -0.001123904221
    68   -0.002219994877
    69   -0.001201997611
    70   -0.000099660355
    71    0.000073450471
    72   -0.000110851215
    73   -0.034885074311
    74   -0.003121728455
    75   -0.015122529501
    76   -0.020373915020
    77   -0.005838919810
    78   -0.000879596766
    79   -0.001286004068
    80    0.000304256997
    81    0.000062084737
    82    0.000073835665
    83    0.000051312259
    84   -0.001994761462
    85    0.002973441993
    86    0.000179547357
    87    0.002163792080
    88   -0.002744769549
    89    0.000322664055
    90   -0.000829693726
    91    0.001552952397
    92    0.001307821684
    93    0.002438682818
    94    0.003351658581
    95   -0.000323944744
    96   -0.000048046502
    97   -0.000527353744
    98    0.003623751560
    99    0.000087303622
   100   -0.002684569441
   101    0.000099730031
   102    0.000147085023
   103    0.000540703671
   104    0.003003377688
   105   -0.000038334590
   106   -0.002919743878
   107    0.002016909603
   108    0.000173630459
   109    0.002722018823
   110   -0.000162307885
   111    0.000112433140
   112   -0.000320789059
   113   -0.000122294703
   114   -0.000122244900
   115   -0.000122244900
   116    0.000044280213
   117    0.000219429782
   118   -0.000190648189
   119   -0.000032019113
   120    0.000533683445
   121   -0.000413462894
   122    0.001266862545
   123    0.001249051318
   124    0.001999683472
   125    0.001999683472
   126   -0.000799746094
   127   -0.002567216887
   128    0.001901010424
   129    0.000118423866
   130   -0.000840861649
   131   -0.000085504897
   132    0.000526672013
   133    0.000603787853
   134   -0.000152796564
   135    0.000450299360
   136    0.000634571475
   137    0.000175990925
   138    0.000787119094
   139    0.000676785928
   140   -0.000087697729
   141   -0.001054197884
   142   -0.000146716661
   143    0.000013670405
   144   -0.000142820382
   145    0.397635701531
   146    0.036607285110
   147    0.170820265022
   148    0.234972522607
   149    0.064208165917
   150    0.010897710439
   151    0.015604595423
   152   -0.001170086077
   153    0.001421073103
   154   -0.001143367241
   155    0.018351788174
   156   -0.015619003134
   157    0.018424296383
   158   -0.018992287831
   159    0.015954521915
   160   -0.018935267889
   161    0.008082775328
   162   -0.006357805565
   163    0.008002453244
   164   -0.027350241616
   165   -0.026393259292
   166   -0.027391896049
   167    0.000772158945
   168   -0.001222588094
   169    0.000796505714
   170   -0.003172417596
   171   -0.006195144054
   172   -0.003003816550
   173   -0.001863377571
   174    0.002373819775
   175   -0.001891265587
   176    0.000115400189
   177   -0.002275554652
   178    0.000142761665
   179   -0.002656194784
   180    0.004808864754
   181   -0.002756042535
   182   -0.001120710988
   183    0.000853188901
   184   -0.001135442920
   185   -0.000440547433
   186    0.000418203479
   187    0.000418203479
   188   -0.000560681173
   189    0.000418227991
   190   -0.000448573223
   191    0.000423323132
   192    0.004366320380
   193   -0.003453751053
   194    0.004288874032
   195    0.001610866008
   196   -0.002204378718
   197   -0.002204378718
   198    0.003816869139
   199   -0.002299990744
   200    0.001693955978
   201   -0.001485489038
   202    0.001315636649
   203    0.001887113210
   204    0.001248531053
   205   -0.000507787126
   206    0.001098213389
   207   -0.000385529955
   208   -0.000416935668
   209    0.001064503946
   210   -0.000541517803
   211    0.001420750404
   212    0.002283656982
   213    0.001470272878
   214   -0.000080041392
   215   -0.000043697908
   216   -0.000086840208
   217   -0.012894931453
   218   -0.001179639146
   219   -0.005550992771
   220   -0.007614503157
   221   -0.002113664067
   222   -0.000399542601
   223   -0.000365662875
   224    0.000169646760
   225    0.000012617648
   226    0.000279798864
   227    0.002337685698
   228   -0.000860501281
   229    0.001351251563
   230   -0.002216404475
   231    0.000888060605
   232   -0.001111345014
   233    0.001306507492
   234   -0.000287631531
   235    0.000892960758
   236    0.001858303674
   237    0.000971634126
   238   -0.000212456806
   239   -0.000495052731
   240    0.000011294427
   241   -0.000383480901
   242   -0.002931023204
   243   -0.000228531302
   244    0.003515959712
   245    0.000462079663
   246    0.000033059294
   247    0.000261002153
   248   -0.002783895255
   249   -0.000125857676
   250    0.002950722409
   251    0.002595809374
   252   -0.000098283545
   253    0.002153662874
   254   -0.000282318481
   255    0.000054826159
   256   -0.000231988207
   257   -0.000175928738
   258    0.000187612784
   259    0.000187612784
   260   -0.000004437850
   261   -0.000136588812
   262   -0.000142299970
   263   -0.000016916364
   264    0.001003392187
   265   -0.000155638188
   266    0.000736811781
   267    0.001822618839
   268   -0.002462004146
   269   -0.002462004146
   270   -0.000796010165
   271    0.002154043124
   272    0.001400366113
   273    0.000065958452
   274    0.000597607309
   275    0.000034638193
   276   -0.000781954680
   277    0.000758493120
   278    0.000112670069
   279    0.000616296372
   280    0.000515310923
   281   -0.000201458909
   282    0.000643288131
   283   -0.000983829053
   284    0.000034817061
   285    0.000779041581
   286   -0.000140072584
   287    0.000017679873
   288   -0.000148454425
Sym=        a    
Ene=    -15.74146
Spin=       Alpha
Occup=    2.00000
     1   -0.241810520175
     2   -0.022501725216
     3   -0.103720665044
     4   -0.143265276996
     5   -0.038375199415
     6   -0.006748898427
     7   -0.009252578628
     8   -0.001011289414
     9   -0.000642701672
    10   -0.000705174888
    11    0.008323724304
    12    0.011603143146
    13    0.010774054845
    14   -0.008811586519
    15   -0.012138321783
    16   -0.010983646901
    17    0.003206079535
    18    0.005205172066
    19    0.004776648747
    20    0.015379515873
    21    0.017140084416
    22    0.016655114711
    23    0.000426885169
    24    0.000230060572
    25    0.000970359495
    26    0.005762949359
    27    0.000357548520
    28    0.001779792498
    29   -0.001072917923
    30   -0.000940218430
    31   -0.001536914814
    32    0.003547528367
    33   -0.001399558894
    34   -0.000025492192
    35   -0.001408016450
    36   -0.000357880920
    37   -0.004314162198
    38   -0.000368440123
    39   -0.000812454986
    40   -0.000705285794
    41   -0.000245637522
    42   -0.000249073017
    43   -0.000249073017
    44   -0.000174835763
    45   -0.000440794695
    46   -0.000446246829
    47   -0.000261598387
    48    0.001419837613
    49    0.003102468349
    50    0.002478860494
    51    0.001585409017
    52    0.000392097858
    53    0.000392097858
    54    0.000538384113
    55    0.003210612533
    56    0.003600495597
    57    0.000923662439
    58   -0.001543812727
    59   -0.000444459233
    60   -0.000687564041
    61   -0.000077306269
    62    0.000188770308
    63   -0.000355770950
    64   -0.001083309277
    65   -0.000020167722
    66   -0.000919210526
    67   -0.000789134444
    68   -0.000401740060
    69   -0.001880413414
    70    0.000113473338
    71   -0.000134515793
    72   -0.000064129835
    73   -0.025908677776
    74   -0.002270193856
    75   -0.011606397088
    76   -0.014622594922
    77   -0.004275876081
    78   -0.000407314569
    79   -0.001378080037
    80   -0.000000756881
    81    0.000372403069
    82   -0.000006591908
    83   -0.001736361578
    84    0.001509387263
    85    0.001635286303
    86    0.002145055245
    87   -0.001215598047
    88   -0.001901573859
    89   -0.001153240741
    90    0.000843037576
    91    0.001095078269
    92    0.002180294261
    93    0.000419204122
    94    0.002277152582
    95   -0.000244700361
    96   -0.000527966596
    97    0.000211437853
    98   -0.001355675332
    99    0.004068097459
   100   -0.001648603969
   101    0.000121153061
   102    0.000468845050
   103   -0.000123640292
   104   -0.001410704751
   105    0.003560779192
   106   -0.001762746121
   107    0.001473432027
   108    0.002656745990
   109   -0.001230857836
   110    0.000168270310
   111   -0.000285283954
   112   -0.000182757970
   113   -0.000101074871
   114   -0.000096265432
   115   -0.000096265432
   116    0.000196645842
   117   -0.000068624742
   118    0.000085426844
   119    0.000004626931
   120   -0.000779914877
   121    0.000874459090
   122    0.000854606745
   123    0.001736155903
   124    0.000504597207
   125    0.000504597207
   126   -0.002406595251
   127    0.000290704098
   128   -0.001598105620
   129   -0.000029233460
   130    0.000253431912
   131   -0.000873879498
   132    0.000336182776
   133    0.000216361475
   134    0.000766187314
   135    0.000516525846
   136   -0.000467599652
   137    0.000783242183
   138   -0.000160384862
   139    0.000455199028
   140   -0.001116628575
   141    0.000374573251
   142    0.000075896660
   143   -0.000174719171
   144   -0.000091432899
   145   -0.200483553804
   146   -0.018629277649
   147   -0.086095642335
   148   -0.118644944059
   149   -0.031847983396
   150   -0.005569057241
   151   -0.007756072638
   152    0.000628385547
   153   -0.000452435777
   154    0.000919736321
   155   -0.008691592906
   156    0.010202264023
   157   -0.006257518756
   158    0.008846836109
   159   -0.010749285025
   160    0.006794069769
   161   -0.003861409773
   162    0.004690632004
   163   -0.002369644017
   164    0.013776694046
   165    0.014394277621
   166    0.012508047115
   167   -0.000896057618
   168    0.000093847414
   169   -0.000355174581
   170    0.001504913488
   171   -0.000413660898
   172    0.005456051124
   173    0.001362657096
   174   -0.000685443202
   175    0.000906725872
   176   -0.000016097344
   177   -0.001608084814
   178    0.003461115104
   179    0.004041541637
   180    0.000119763477
   181    0.001072455335
   182    0.000558441968
   183   -0.000736642233
   184    0.000230585412
   185    0.000390723733
   186   -0.000401445473
   187   -0.000401445473
   188    0.000115898588
   189   -0.000204342104
   190    0.000183416266
   191   -0.000217789712
   192   -0.002078103171
   193    0.002668294390
   194   -0.001049253948
   195   -0.003438933014
   196    0.003003752840
   197    0.003003752840
   198    0.000753022382
   199    0.000182061536
   200   -0.001451095649
   201    0.000776416590
   202   -0.000584693922
   203   -0.000203720403
   204   -0.001426532272
   205    0.000900558901
   206    0.000130596192
   207    0.001006445179
   208    0.000325704446
   209    0.000302390688
   210    0.000040191390
   211   -0.001740373645
   212   -0.000134862129
   213   -0.000663700451
   214    0.000053491014
   215   -0.000143621820
   216   -0.000120023105
   217    0.426041430689
   218    0.039455087417
   219    0.182379714229
   220    0.252773921640
   221    0.068506922970
   222    0.012169124027
   223    0.016174391522
   224    0.001344739534
   225   -0.001224505683
   226   -0.001302473118
   227   -0.018689844110
   228    0.020013328771
   229    0.018944098840
   230    0.018837353391
   231   -0.020566113352
   232   -0.019058214787
   233   -0.007696455148
   234    0.008532106124
   235    0.007735717126
   236   -0.028879013841
   237   -0.029504571427
   238   -0.028979350295
   239    0.001085686278
   240    0.000879889372
   241   -0.001134040385
   242   -0.005100421842
   243   -0.003178006927
   244   -0.004760406559
   245   -0.002281384102
   246   -0.002125388942
   247    0.002329026162
   248   -0.001215799674
   249    0.000493707316
   250   -0.001017811479
   251   -0.004039912467
   252   -0.002998176933
   253    0.004236565350
   254    0.001109105211
   255   -0.001265881055
   256   -0.001145457380
   257    0.000559395120
   258   -0.000555504135
   259   -0.000555504135
   260    0.000476521077
   261   -0.000571180573
   262   -0.000570591054
   263    0.000470569348
   264   -0.004098171272
   265    0.004789275623
   266    0.004104572013
   267   -0.003273175650
   268    0.002837793449
   269    0.002837793449
   270   -0.002130491026
   271    0.003057729750
   272    0.003449189935
   273   -0.001680820028
   274    0.001746110587
   275    0.001379189287
   276    0.001650584440
   277   -0.000755161207
   278   -0.000482329569
   279   -0.000861397288
   280    0.000954096173
   281   -0.000495452417
   282    0.000803777508
   283    0.001970588121
   284    0.001548113868
   285    0.002069020270
   286    0.000014783330
   287   -0.000104994027
   288   -0.000030254819
Sym=        a    
Ene=    -15.74113
Spin=       Alpha
Occup=    2.00000
     1   -0.217313919256
     2   -0.020532786160
     3   -0.093206208474
     4   -0.128948337737
     5   -0.033512311510
     6   -0.005905989305
     7   -0.008480361365
     8   -0.000656237700
     9   -0.000682999367
    10   -0.000992154940
    11    0.009309592116
    12    0.009273852606
    13    0.006251913713
    14   -0.009911953997
    15   -0.010187905802
    16   -0.006677402058
    17    0.004302449183
    18    0.004215412674
    19    0.002741562967
    20    0.015148754774
    21    0.015109892166
    22    0.013513931859
    23    0.000880553963
    24    0.000209030266
    25    0.000187567807
    26    0.000876841935
    27    0.001021109852
    28    0.005938777574
    29   -0.001279055064
    30   -0.000754644140
    31   -0.000729367619
    32   -0.000260418117
    33   -0.000106306307
    34    0.004118909910
    35   -0.004010029137
    36   -0.000695312185
    37   -0.000525427323
    38   -0.000676160730
    39   -0.000655634366
    40   -0.000241195098
    41   -0.000414814440
    42   -0.000413452477
    43   -0.000413452477
    44   -0.000164716821
    45   -0.000153625347
    46   -0.000152028933
    47   -0.000236461594
    48    0.002338909598
    49    0.002409415507
    50    0.000949150409
    51    0.003220441585
    52    0.003220062010
    53    0.003220062010
    54   -0.000304907024
    55   -0.000365439310
    56    0.000685160362
    57    0.000812646226
    58   -0.000399184719
    59   -0.000461686216
    60   -0.001496822686
    61   -0.000931094480
    62   -0.000090962894
    63   -0.000972484418
    64   -0.000068519685
    65    0.000150844739
    66    0.000160826957
    67   -0.001791283168
    68   -0.000437107025
    69   -0.000394474216
    70   -0.000101755175
    71   -0.000098778639
    72    0.000126945647
    73    0.422082726096
    74    0.039374663223
    75    0.179635525333
    76    0.251942141673
    77    0.067557134832
    78    0.012779164892
    79    0.014856318792
    80   -0.001132454782
    81   -0.001157528749
    82    0.001142417708
    83    0.020151196233
    84    0.020165019777
    85   -0.020603780755
    86   -0.019464120314
    87   -0.019792862126
    88    0.020184533407
    89    0.007785986592
    90    0.007841586066
    91   -0.008111642418
    92   -0.029206690250
    93   -0.029185490644
    94   -0.029105961083
    95   -0.001118631275
    96    0.001110801003
    97    0.001092493490
    98   -0.004032740314
    99   -0.004113899335
   100   -0.004294962951
   101    0.002294665779
   102   -0.002405568685
   103   -0.002383147047
   104   -0.000211169205
   105   -0.000269811178
   106   -0.000724810621
   107    0.004383844145
   108   -0.004252686432
   109   -0.004094770642
   110   -0.001301596428
   111   -0.001286911808
   112    0.001279631670
   113   -0.000615834788
   114   -0.000615330664
   115   -0.000615330664
   116   -0.000582677547
   117   -0.000572196307
   118    0.000591182954
   119    0.000525757893
   120    0.004247929142
   121    0.004344503500
   122   -0.004215818445
   123    0.003014422303
   124    0.003014345271
   125    0.003014345271
   126    0.002824610162
   127    0.002768193072
   128   -0.002889260867
   129   -0.001934281897