 argument  1 = N4.nw
                                         
                                         


              Northwest Computational Chemistry Package (NWChem) 6.6
              ------------------------------------------------------


                    Environmental Molecular Sciences Laboratory
                       Pacific Northwest National Laboratory
                                Richland, WA 99352

                              Copyright (c) 1994-2015
                       Pacific Northwest National Laboratory
                            Battelle Memorial Institute

             NWChem is an open-source computational chemistry package
                        distributed under the terms of the
                      Educational Community License (ECL) 2.0
             A copy of the license is included with this distribution
                              in the LICENSE.TXT file

                                  ACKNOWLEDGMENT
                                  --------------

            This software and its documentation were developed at the
            EMSL at Pacific Northwest National Laboratory, a multiprogram
            national laboratory, operated for the U.S. Department of Energy
            by Battelle under Contract Number DE-AC05-76RL01830. Support
            for this work was provided by the Department of Energy Office
            of Biological and Environmental Research, Office of Basic
            Energy Sciences, and the Office of Advanced Scientific Computing.


           Job information
           ---------------

    hostname        = vladimir-Bars
    program         = /home/vladimir/bin/nwchem-6.6_molden/bin/LINUX64/nwchem
    date            = Mon May 16 13:04:54 2016

    compiled        = Пт._мая_13_17:47:57_2016
    source          = /home/vladimir/bin/nwchem-6.6_molden
    nwchem branch   = 6.6
    nwchem revision = 27746
    ga revision     = 10594
    input           = N4.nw
    prefix          = N4.
    data base       = ./N4.db
    status          = startup
    nproc           =        1
    time left       =     -1s



           Memory information
           ------------------

    heap     =   13107194 doubles =    100.0 Mbytes
    stack    =   13107199 doubles =    100.0 Mbytes
    global   =   26214400 doubles =    200.0 Mbytes (distinct from heap & stack)
    total    =   52428793 doubles =    400.0 Mbytes
    verify   = yes
    hardfail = no 


           Directory information
           ---------------------

  0 permanent = .
  0 scratch   = .




                                NWChem Input Module
                                -------------------


                             test HF/def2-QZVP energy
                             ------------------------

 Scaling coordinates for geometry "geometry" by  1.889725989
 (inverse scale =  0.529177249)

 Turning off AUTOSYM since
 SYMMETRY directive was detected!


          ------
          auto-z
          ------


                             Geometry "geometry" -> ""
                             -------------------------

 Output coordinates in angstroms (scale by  1.889725989 to convert to a.u.)

  No.       Tag          Charge          X              Y              Z
 ---- ---------------- ---------- -------------- -------------- --------------
    1 N                    7.0000     0.52000000     0.52750000     0.51250000
    2 N                    7.0000    -0.52000000    -0.52250000     0.52250000
    3 N                    7.0000    -0.52000000     0.51750000    -0.51750000
    4 N                    7.0000     0.52000000    -0.52250000    -0.51750000

      Atomic Mass 
      ----------- 

      N                 14.003070


 Effective nuclear repulsion energy (a.u.)     105.7779480979

            Nuclear Dipole moment (a.u.) 
            ----------------------------
        X                 Y               Z
 ---------------- ---------------- ----------------
     0.0000000000     0.0000000000     0.0000000000



                                Z-matrix (autoz)
                                -------- 

 Units are Angstrom for bonds and degrees for angles

      Type          Name      I     J     K     L     M      Value
      ----------- --------  ----- ----- ----- ----- ----- ----------
    1 Stretch                  1     2                       1.47790
    2 Stretch                  1     3                       1.46376
    3 Stretch                  1     4                       1.47085
    4 Stretch                  2     3                       1.47078
    5 Stretch                  2     4                       1.47078
    6 Stretch                  3     4                       1.47078
    7 Bend                     1     2     3                59.52518
    8 Bend                     1     2     4                59.84274
    9 Bend                     1     3     2                60.47941
   10 Bend                     1     3     4                60.16083
   11 Bend                     1     4     2                60.31908
   12 Bend                     1     4     3                59.68296
   13 Bend                     2     1     3                59.99541
   14 Bend                     2     1     4                59.83818
   15 Bend                     2     3     4                60.00000
   16 Bend                     2     4     3                60.00000
   17 Bend                     3     1     4                60.15621
   18 Bend                     3     2     4                60.00000
   19 Torsion                  1     2     3     4          70.52878
   20 Torsion                  1     2     4     3         -70.01104
   21 Torsion                  1     3     2     4         -70.52878
   22 Torsion                  1     3     4     2          71.04985
   23 Torsion                  1     4     2     3          70.01104
   24 Torsion                  1     4     3     2         -71.04985
   25 Torsion                  2     1     3     4         -70.26888
   26 Torsion                  2     1     4     3          70.52462
   27 Torsion                  2     3     1     4          70.26888
   28 Torsion                  2     4     1     3         -70.52462
   29 Torsion                  3     1     2     4          70.78827
   30 Torsion                  3     2     1     4         -70.78827


            XYZ format geometry
            -------------------
     4
 geometry
 N                     0.52000000     0.52750000     0.51250000
 N                    -0.52000000    -0.52250000     0.52250000
 N                    -0.52000000     0.51750000    -0.51750000
 N                     0.52000000    -0.52250000    -0.51750000

 ==============================================================================
                                internuclear distances
 ------------------------------------------------------------------------------
       center one      |      center two      | atomic units |  angstroms
 ------------------------------------------------------------------------------
    2 N                |   1 N                |     2.79283  |     1.47790
    3 N                |   1 N                |     2.76611  |     1.46376
    3 N                |   2 N                |     2.77938  |     1.47078
    4 N                |   1 N                |     2.77950  |     1.47085
    4 N                |   2 N                |     2.77938  |     1.47078
    4 N                |   3 N                |     2.77938  |     1.47078
 ------------------------------------------------------------------------------
                         number of included internuclear distances:          6
 ==============================================================================



 ==============================================================================
                                 internuclear angles
 ------------------------------------------------------------------------------
        center 1       |       center 2       |       center 3       |  degrees
 ------------------------------------------------------------------------------
    1 N                |   3 N                |   2 N                |    60.48
    1 N                |   4 N                |   2 N                |    60.32
    1 N                |   3 N                |   4 N                |    60.16
    2 N                |   3 N                |   1 N                |    60.48
    2 N                |   4 N                |   1 N                |    60.32
    2 N                |   3 N                |   4 N                |    60.00
    1 N                |   3 N                |   2 N                |    60.48
    1 N                |   3 N                |   4 N                |    60.16
    3 N                |   2 N                |   4 N                |    60.00
    1 N                |   4 N                |   2 N                |    60.32
    4 N                |   3 N                |   1 N                |    60.16
    4 N                |   2 N                |   3 N                |    60.00
 ------------------------------------------------------------------------------
                            number of included internuclear angles:         12
 ==============================================================================



  library name resolved from: environment
  library file name is: </home/vladimir/bin/nwchem-6.6/src/basis/libraries/>
  
                      Basis "ao basis" -> "" (cartesian)
                      -----
  N (Nitrogen)
  ------------
            Exponent  Coefficients 
       -------------- ---------------------------------------------------------
  1 S  9.07268892E+04  0.000039
  1 S  1.35905288E+04  0.000305
  1 S  3.09298838E+03  0.001600
  1 S  8.75998764E+02  0.006698
  1 S  2.85744700E+02  0.023690
  1 S  1.03119134E+02  0.071455
  1 S  4.01285568E+01  0.176328
  1 S  1.65280957E+01  0.326776

  2 S  6.93909610E+01  0.080052
  2 S  2.04282006E+01  0.782681

  3 S  7.12925880E+00  1.000000

  4 S  3.13243049E+00  1.000000

  5 S  9.87557787E-01  1.000000

  6 S  3.87657213E-01  1.000000

  7 S  1.49098831E-01  1.000000

  8 P  1.50057427E+02 -0.000862
  8 P  3.54915995E+01 -0.006857
  8 P  1.12478642E+01 -0.031796
  8 P  4.09003052E+00 -0.105374
  8 P  1.62205731E+00 -0.245197

  9 P  6.64422615E-01  1.000000

 10 P  2.70997701E-01  1.000000

 11 P  1.06887500E-01  1.000000

 12 D  2.83700000E+00  1.000000

 13 D  9.68000000E-01  1.000000

 14 D  3.35000000E-01  1.000000

 15 F  2.02700000E+00  1.000000

 16 F  6.85000000E-01  1.000000

 17 G  1.42700000E+00  1.000000



 Summary of "ao basis" -> "" (cartesian)
 ------------------------------------------------------------------------------
       Tag                 Description            Shells   Functions and Types
 ---------------- ------------------------------  ------  ---------------------
 N                         def2-QZVP                17       72   7s4p3d2f1g


                                 NWChem SCF Module
                                 -----------------


                             test HF/def2-QZVP energy



  ao basis        = "ao basis"
  functions       =   288
  atoms           =     4
  closed shells   =    14
  open shells     =     0
  charge          =   0.00
  wavefunction    = RHF 
  input vectors   = atomic
  output vectors  = ./N4.movecs
  use symmetry    = F
  symmetry adapt  = F


 Summary of "ao basis" -> "ao basis" (cartesian)
 ------------------------------------------------------------------------------
       Tag                 Description            Shells   Functions and Types
 ---------------- ------------------------------  ------  ---------------------
 N                         def2-QZVP                17       72   7s4p3d2f1g



 Forming initial guess at       0.4s


 Forcing the number of linearly dependent vectors to be 60

 !! The overlap matrix has  60 vectors deemed linearly dependent with
    eigenvalues:
 1.54D-05 1.54D-05 1.54D-05 2.31D-05 9.18D-05 9.28D-05 9.37D-05 1.03D-04
 1.04D-04 1.05D-04 1.20D-04 1.20D-04 1.20D-04 1.31D-04 1.59D-04 1.60D-04
 1.60D-04 1.86D-04 1.87D-04 2.27D-04 2.27D-04 2.27D-04 2.73D-04 3.61D-04
 3.61D-04 3.76D-04 3.77D-04 3.78D-04 4.35D-04 4.37D-04 4.40D-04 5.29D-04
 5.31D-04 5.32D-04 6.54D-04 6.66D-04 6.78D-04 8.89D-04 8.92D-04 8.94D-04
 8.97D-04 1.10D-03 1.34D-03 1.34D-03 1.35D-03 1.42D-03 1.42D-03 1.42D-03
 1.46D-03 1.46D-03 1.64D-03 1.65D-03 1.67D-03 2.97D-03 3.11D-03 3.12D-03
 3.12D-03 3.99D-03 4.03D-03 4.07D-03


      Superposition of Atomic Density Guess
      -------------------------------------

 Sum of atomic energies:        -217.25310692

      Non-variational initial energy
      ------------------------------

 Total energy =    -218.694933
 1-e energy   =    -505.772831
 2-e energy   =     181.299950
 HOMO         =      -0.350343
 LUMO         =       0.114095


 Starting SCF solution at      31.8s



 ----------------------------------------------
         Quadratically convergent ROHF

 Convergence threshold     :          1.000E-07
 Maximum no. of iterations :           30
 Final Fock-matrix accuracy:          1.000E-10
 ----------------------------------------------


 Integral file          = ./N4.aoints.0
 Record size in doubles =  65536        No. of integs per rec  =  32766
 Max. records in memory =      0        Max. records in file   = 745460
 No. of bits per label  =     16        No. of bits per value  =     64


 #quartets = 2.585D+06 #integrals = 7.790D+08 #direct =  0.0% #cached =100.0%


              iter       energy          gnorm     gmax       time
             ----- ------------------- --------- --------- --------
                 1     -217.4346745267  1.27D+00  2.71D-01     73.0
                 2     -217.5092090394  2.26D-01  4.63D-02     89.7
                 3     -217.5149064728  2.33D-02  7.44D-03    115.5
                 4     -217.5149866690  2.14D-04  4.09D-05    158.2
                 5     -217.5149866723  2.62D-08  6.03D-09    234.4


       Final RHF  results 
       ------------------ 

         Total SCF energy =   -217.514986672317
      One-electron energy =   -504.154154943282
      Two-electron energy =    180.861220173079
 Nuclear repulsion energy =    105.777948097886

        Time for solution =    202.4s


             Final eigenvalues
             -----------------

              1      
    1  -15.7509
    2  -15.7416
    3  -15.7415
    4  -15.7411
    5   -1.6535
    6   -1.0446
    7   -1.0412
    8   -1.0379
    9   -0.6876
   10   -0.5712
   11   -0.5701
   12   -0.5689
   13   -0.5355
   14   -0.5302
   15    0.1766
   16    0.1785
   17    0.1795
   18    0.1840
   19    0.1852
   20    0.1874
   21    0.2594
   22    0.3273
   23    0.3275
   24    0.3278

                       ROHF Final Molecular Orbital Analysis
                       -------------------------------------

 Vector    5  Occ=2.000000D+00  E=-1.653505D+00
              MO Center= -4.5D-05,  2.4D-03, -2.4D-03, r^2= 6.9D-01
   Bfn.  Coefficient  Atom+Function         Bfn.  Coefficient  Atom+Function  
  ----- ------------  ---------------      ----- ------------  ---------------
   150     -0.052018  3 N  s                  6     -0.051707  1 N  s          
    78     -0.051936  2 N  s                222     -0.051889  4 N  s          
   145      0.051329  3 N  s                  1      0.050962  1 N  s          
    73      0.050904  2 N  s                217      0.051060  4 N  s          

 Vector    6  Occ=2.000000D+00  E=-1.044583D+00
              MO Center= -1.5D-02, -3.8D-03,  9.2D-02, r^2= 1.3D+00
   Bfn.  Coefficient  Atom+Function         Bfn.  Coefficient  Atom+Function  
  ----- ------------  ---------------      ----- ------------  ---------------
   225     -0.078151  4 N  py                78     -0.077617  2 N  s          
   153     -0.076653  3 N  py                 6      0.073494  1 N  s          

 Vector    7  Occ=2.000000D+00  E=-1.041211D+00
              MO Center=  2.8D-02, -9.0D-02, -8.8D-02, r^2= 1.3D+00
   Bfn.  Coefficient  Atom+Function         Bfn.  Coefficient  Atom+Function  
  ----- ------------  ---------------      ----- ------------  ---------------
   222     -0.090637  4 N  s                  8      0.083596  1 N  px         

 Vector    8  Occ=2.000000D+00  E=-1.037890D+00
              MO Center= -1.3D-02,  9.5D-02, -4.6D-03, r^2= 1.3D+00
   Bfn.  Coefficient  Atom+Function         Bfn.  Coefficient  Atom+Function  
  ----- ------------  ---------------      ----- ------------  ---------------
   226     -0.079745  4 N  pz               150     -0.078398  3 N  s          
    82     -0.075798  2 N  pz                 6      0.072913  1 N  s          

 Vector    9  Occ=2.000000D+00  E=-6.876224D-01
              MO Center=  9.4D-05,  3.9D-03, -3.8D-03, r^2= 2.0D+00
   Bfn.  Coefficient  Atom+Function         Bfn.  Coefficient  Atom+Function  
  ----- ------------  ---------------      ----- ------------  ---------------
     7      0.112971  1 N  s                151      0.112815  3 N  s          
   223      0.112279  4 N  s                 79      0.111044  2 N  s          

 Vector   10  Occ=2.000000D+00  E=-5.712110D-01
              MO Center= -1.6D-01, -1.6D-01,  3.2D-01, r^2= 1.7D+00
   Bfn.  Coefficient  Atom+Function         Bfn.  Coefficient  Atom+Function  
  ----- ------------  ---------------      ----- ------------  ---------------
    10      0.164919  1 N  pz         

 Vector   11  Occ=2.000000D+00  E=-5.700813D-01
              MO Center=  3.2D-01, -1.4D-01, -1.5D-01, r^2= 1.7D+00
   Bfn.  Coefficient  Atom+Function         Bfn.  Coefficient  Atom+Function  
  ----- ------------  ---------------      ----- ------------  ---------------
     8      0.165190  1 N  px         

 Vector   12  Occ=2.000000D+00  E=-5.688838D-01
              MO Center= -1.6D-01,  3.0D-01, -1.8D-01, r^2= 1.7D+00
   Bfn.  Coefficient  Atom+Function         Bfn.  Coefficient  Atom+Function  
  ----- ------------  ---------------      ----- ------------  ---------------
     9      0.163212  1 N  py         

 Vector   13  Occ=2.000000D+00  E=-5.354881D-01
              MO Center= -4.6D-05, -1.3D-02,  2.6D-03, r^2= 1.5D+00
   Bfn.  Coefficient  Atom+Function         Bfn.  Coefficient  Atom+Function  
  ----- ------------  ---------------      ----- ------------  ---------------
    81     -0.144756  2 N  py               225     -0.142980  4 N  py         
     9      0.142018  1 N  py               153      0.141053  3 N  py         

 Vector   14  Occ=2.000000D+00  E=-5.302111D-01
              MO Center= -2.0D-05, -2.5D-03,  1.2D-02, r^2= 1.5D+00
   Bfn.  Coefficient  Atom+Function         Bfn.  Coefficient  Atom+Function  
  ----- ------------  ---------------      ----- ------------  ---------------
    82      0.145202  2 N  pz                10      0.144474  1 N  pz         
   226     -0.143282  4 N  pz               154     -0.141848  3 N  pz         

 Vector   15  Occ=0.000000D+00  E= 1.765894D-01
              MO Center=  1.8D-02,  1.2D-02,  1.9D-02, r^2= 4.9D+00
   Bfn.  Coefficient  Atom+Function         Bfn.  Coefficient  Atom+Function  
  ----- ------------  ---------------      ----- ------------  ---------------
    18      0.537609  1 N  py                90      0.521757  2 N  py         
    89      0.422671  2 N  px                17      0.388686  1 N  px         
   234      0.273280  4 N  py               162      0.254281  3 N  py         
   109      0.185667  2 N  dzz               19     -0.176693  1 N  pz         
    37     -0.173851  1 N  dzz              104      0.170873  2 N  dxx        

 Vector   16  Occ=0.000000D+00  E= 1.784563D-01
              MO Center= -4.4D-02,  6.4D-02,  8.3D-02, r^2= 5.1D+00
   Bfn.  Coefficient  Atom+Function         Bfn.  Coefficient  Atom+Function  
  ----- ------------  ---------------      ----- ------------  ---------------
   233      0.413821  4 N  px                89      0.390064  2 N  px         
   234     -0.377352  4 N  py               162     -0.369369  3 N  py         
   161      0.356028  3 N  px                17      0.334122  1 N  px         
    19     -0.226860  1 N  pz               253     -0.214247  4 N  dzz        
    18     -0.212920  1 N  py               248     -0.208058  4 N  dxx        

 Vector   17  Occ=0.000000D+00  E= 1.795056D-01
              MO Center=  1.2D-02, -1.2D-01,  5.9D-03, r^2= 5.0D+00
   Bfn.  Coefficient  Atom+Function         Bfn.  Coefficient  Atom+Function  
  ----- ------------  ---------------      ----- ------------  ---------------
    91      0.577813  2 N  pz               235      0.516500  4 N  pz         
   163      0.420035  3 N  pz                19      0.357274  1 N  pz         
   162     -0.304131  3 N  py                16     -0.183942  1 N  pz         
   176      0.179381  3 N  dxx               89      0.173746  2 N  px         
   160     -0.174105  3 N  pz               179      0.173806  3 N  dyy        

 Vector   18  Occ=0.000000D+00  E= 1.839789D-01
              MO Center=  1.2D-01, -5.6D-02,  6.8D-02, r^2= 2.7D+00
   Bfn.  Coefficient  Atom+Function         Bfn.  Coefficient  Atom+Function  
  ----- ------------  ---------------      ----- ------------  ---------------
    19      0.709110  1 N  pz               233      0.684445  4 N  px         
    91     -0.657459  2 N  pz                17     -0.471196  1 N  px         
   161      0.441893  3 N  px               234      0.401694  4 N  py         
   235      0.273532  4 N  pz                90     -0.251672  2 N  py         
   163     -0.232335  3 N  pz                89     -0.227839  2 N  px         

 Vector   19  Occ=0.000000D+00  E= 1.852438D-01
              MO Center= -1.3D-01, -2.0D-01, -1.5D-01, r^2= 2.4D+00
   Bfn.  Coefficient  Atom+Function         Bfn.  Coefficient  Atom+Function  
  ----- ------------  ---------------      ----- ------------  ---------------
   234     -0.677122  4 N  py                90      0.668788  2 N  py         
   163     -0.628170  3 N  pz               235      0.620401  4 N  pz         
    89     -0.596255  2 N  px               161      0.534152  3 N  px         
   228     -0.172059  4 N  py                84      0.170196  2 N  py         
   157     -0.160539  3 N  pz               229      0.158876  4 N  pz         

 Vector   20  Occ=0.000000D+00  E= 1.873853D-01
              MO Center=  2.5D-02,  3.0D-01, -3.1D-02, r^2= 2.6D+00
   Bfn.  Coefficient  Atom+Function         Bfn.  Coefficient  Atom+Function  
  ----- ------------  ---------------      ----- ------------  ---------------
   162     -0.743475  3 N  py                18      0.707109  1 N  py         
    17     -0.592377  1 N  px               161     -0.473524  3 N  px         
   163     -0.455771  3 N  pz               233      0.398154  4 N  px         
    19     -0.350390  1 N  pz               235      0.290660  4 N  pz         
    89      0.280802  2 N  px               156     -0.185701  3 N  py         

 Vector   21  Occ=0.000000D+00  E= 2.593972D-01
              MO Center= -1.7D-03,  4.2D-03, -5.8D-03, r^2= 7.7D+00
   Bfn.  Coefficient  Atom+Function         Bfn.  Coefficient  Atom+Function  
  ----- ------------  ---------------      ----- ------------  ---------------
    18      0.600994  1 N  py               161     -0.601480  3 N  px         
   163     -0.599251  3 N  pz                17      0.595567  1 N  px         
    91      0.597952  2 N  pz               234     -0.598467  4 N  py         
    90     -0.593895  2 N  py               162      0.595639  3 N  py         
   233      0.596434  4 N  px               235     -0.593714  4 N  pz         

 Vector   22  Occ=0.000000D+00  E= 3.272644D-01
              MO Center= -2.7D-01, -2.1D-01,  7.4D-01, r^2= 6.6D+00
   Bfn.  Coefficient  Atom+Function         Bfn.  Coefficient  Atom+Function  
  ----- ------------  ---------------      ----- ------------  ---------------
    91     -1.015293  2 N  pz                19      0.947410  1 N  pz         
    89      0.791650  2 N  px                90      0.762240  2 N  py         
   161     -0.642454  3 N  px                17      0.539869  1 N  px         
   234     -0.412981  4 N  py                18      0.389071  1 N  py         
    16     -0.362435  1 N  pz                88      0.325991  2 N  pz         

 Vector   23  Occ=0.000000D+00  E= 3.275360D-01
              MO Center=  5.8D-01, -5.2D-01, -4.8D-01, r^2= 6.5D+00
   Bfn.  Coefficient  Atom+Function         Bfn.  Coefficient  Atom+Function  
  ----- ------------  ---------------      ----- ------------  ---------------
   234     -0.989270  4 N  py               233      0.949372  4 N  px         
   235     -0.854875  4 N  pz                17     -0.793714  1 N  px         
   163      0.717596  3 N  pz                90      0.662697  2 N  py         
    14      0.344766  1 N  px               160     -0.335796  3 N  pz         
    87     -0.298878  2 N  py               231      0.279593  4 N  py         

 Vector   24  Occ=0.000000D+00  E= 3.278117D-01
              MO Center= -3.1D-01,  7.3D-01, -2.6D-01, r^2= 6.6D+00
   Bfn.  Coefficient  Atom+Function         Bfn.  Coefficient  Atom+Function  
  ----- ------------  ---------------      ----- ------------  ---------------
   162     -1.026757  3 N  py                18      0.941769  1 N  py         
   161      0.863241  3 N  px               163      0.744027  3 N  pz         
    89     -0.583741  2 N  px               235     -0.531908  4 N  pz         
    17      0.423748  1 N  px                19      0.402000  1 N  pz         
    15     -0.360551  1 N  py               159      0.323121  3 N  py         

 Vector   25  Occ=0.000000D+00  E= 3.287404D-01
              MO Center=  2.5D-03, -6.5D-03, -2.2D-04, r^2= 6.6D+00
   Bfn.  Coefficient  Atom+Function         Bfn.  Coefficient  Atom+Function  
  ----- ------------  ---------------      ----- ------------  ---------------
    18      0.770062  1 N  py                90     -0.764168  2 N  py         
   162      0.759469  3 N  py               234     -0.716204  4 N  py         
   233     -0.629505  4 N  px                89      0.597898  2 N  px         
   161      0.514320  3 N  px                17     -0.491267  1 N  px         
    87      0.368530  2 N  py                15     -0.348864  1 N  py         

 Vector   26  Occ=0.000000D+00  E= 3.296645D-01
              MO Center=  7.0D-04, -1.2D-03,  7.3D-03, r^2= 6.6D+00
   Bfn.  Coefficient  Atom+Function         Bfn.  Coefficient  Atom+Function  
  ----- ------------  ---------------      ----- ------------  ---------------
   235     -0.777625  4 N  pz                91      0.762216  2 N  pz         
   163     -0.764661  3 N  pz                19      0.751987  1 N  pz         
    17     -0.595022  1 N  px                89      0.584452  2 N  px         
   161      0.520875  3 N  px               233     -0.510735  4 N  px         
    88     -0.361865  2 N  pz                16     -0.356129  1 N  pz         

 Vector   27  Occ=0.000000D+00  E= 4.515754D-01
              MO Center=  2.8D-02,  2.2D-02, -3.4D-02, r^2= 3.0D+00
   Bfn.  Coefficient  Atom+Function         Bfn.  Coefficient  Atom+Function  
  ----- ------------  ---------------      ----- ------------  ---------------
    19      0.410879  1 N  pz                18     -0.373211  1 N  py         
   231      0.358394  4 N  py               158      0.327345  3 N  px         
   159      0.311463  3 N  py               234     -0.309977  4 N  py         
    90     -0.298415  2 N  py               230      0.284799  4 N  px         
   161     -0.274161  3 N  px                15      0.268132  1 N  py         

 Vector   28  Occ=0.000000D+00  E= 4.542374D-01
              MO Center= -4.9D-02,  3.7D-02,  3.6D-02, r^2= 3.0D+00
   Bfn.  Coefficient  Atom+Function         Bfn.  Coefficient  Atom+Function  
  ----- ------------  ---------------      ----- ------------  ---------------
   163      0.374031  3 N  pz                90      0.352808  2 N  py         
   160     -0.347102  3 N  pz                87     -0.339699  2 N  py         
    17     -0.311450  1 N  px                91      0.303057  2 N  pz         
    14      0.289938  1 N  px                18      0.272852  1 N  py         
    88     -0.268549  2 N  pz               159     -0.259900  3 N  py         

 Vector   29  Occ=0.000000D+00  E= 4.567871D-01
              MO Center=  2.4D-02, -8.6D-02,  2.6D-02, r^2= 3.0D+00
   Bfn.  Coefficient  Atom+Function         Bfn.  Coefficient  Atom+Function  
  ----- ------------  ---------------      ----- ------------  ---------------
   235      0.485807  4 N  pz                89      0.461756  2 N  px         
    91      0.454308  2 N  pz               232     -0.379201  4 N  pz         
   233      0.357401  4 N  px                86     -0.348391  2 N  px         
    88     -0.325684  2 N  pz               230     -0.288613  4 N  px         
    16     -0.241005  1 N  pz               108      0.235995  2 N  dyz        

 Vector   30  Occ=0.000000D+00  E= 4.743165D-01
              MO Center=  1.4D-01, -9.0D-02,  1.8D-01, r^2= 6.6D+00
   Bfn.  Coefficient  Atom+Function         Bfn.  Coefficient  Atom+Function  
  ----- ------------  ---------------      ----- ------------  ---------------
    19      2.214122  1 N  pz                91     -2.188774  2 N  pz         
   233      1.887007  4 N  px                17     -1.848546  1 N  px         
   234      1.469179  4 N  py                90     -1.438419  2 N  py         
   161      0.809983  3 N  px                89     -0.766032  2 N  px         
   163     -0.431471  3 N  pz               235      0.422215  4 N  pz         

 Vector   31  Occ=0.000000D+00  E= 4.746686D-01
              MO Center= -1.8D-01, -1.7D-01, -1.6D-01, r^2= 6.6D+00
   Bfn.  Coefficient  Atom+Function         Bfn.  Coefficient  Atom+Function  
  ----- ------------  ---------------      ----- ------------  ---------------
    89      2.010599  2 N  px               161     -2.007636  3 N  px         
   163      1.950839  3 N  pz               235     -1.954109  4 N  pz         
    90     -1.906246  2 N  py               234      1.901918  4 N  py         
    83      0.234016  2 N  px                86     -0.234050  2 N  px         
   155     -0.231976  3 N  px               158      0.229174  3 N  px         

 Vector   32  Occ=0.000000D+00  E= 4.752659D-01
              MO Center=  4.6D-02,  2.8D-01, -4.5D-02, r^2= 6.6D+00
   Bfn.  Coefficient  Atom+Function         Bfn.  Coefficient  Atom+Function  
  ----- ------------  ---------------      ----- ------------  ---------------
   162     -2.396687  3 N  py                18      2.370361  1 N  py         
    17     -1.524143  1 N  px               233      1.473544  4 N  px         
   163     -1.326836  3 N  pz               235      1.286701  4 N  pz         
   161     -1.061121  3 N  px                89      1.002892  2 N  px         
    19     -0.876671  1 N  pz                91      0.829229  2 N  pz         

 Vector   33  Occ=0.000000D+00  E= 4.883888D-01
              MO Center= -1.3D-03,  9.4D-03, -1.0D-02, r^2= 4.2D+00
   Bfn.  Coefficient  Atom+Function         Bfn.  Coefficient  Atom+Function  
  ----- ------------  ---------------      ----- ------------  ---------------
     7      1.316277  1 N  s                151      1.306416  3 N  s          
   223      1.299899  4 N  s                 79      1.276869  2 N  s          
     6     -0.798353  1 N  s                 78     -0.794815  2 N  s          
   150     -0.795592  3 N  s                222     -0.796119  4 N  s          
    19     -0.486964  1 N  pz                17     -0.478915  1 N  px         

 Vector   34  Occ=0.000000D+00  E= 8.009481D-01
              MO Center=  4.0D-03,  6.9D-05,  5.5D-02, r^2= 2.4D+00
   Bfn.  Coefficient  Atom+Function         Bfn.  Coefficient  Atom+Function  
  ----- ------------  ---------------      ----- ------------  ---------------
    35      0.412326  1 N  dyy              107     -0.411369  2 N  dyy        
   179      0.381004  3 N  dyy              251     -0.382251  4 N  dyy        
    34      0.227733  1 N  dxz               36     -0.227304  1 N  dyz        
   106      0.224187  2 N  dxz              108     -0.222425  2 N  dyz        
   177      0.220198  3 N  dxy              249     -0.220351  4 N  dxy        


------------------------------------------------------------
EAF file 0: "./N4.aoints.0" size=12465995776 bytes
------------------------------------------------------------
               write      read    awrite     aread      wait
               -----      ----    ------     -----      ----
     calls:    23777        19         0    451744    451744
   data(b): 1.25e+10  9.96e+06  0.00e+00  2.37e+11
   time(s): 0.00e+00  0.00e+00  0.00e+00  0.00e+00  0.00e+00
rate(mb/s): 0.00e+00  0.00e+00
------------------------------------------------------------


 center of mass
 --------------
 x =   0.00000000 y =   0.00000000 z =   0.00000000

 moments of inertia (a.u.)
 ------------------
         108.180184876804          -0.260030490378           0.260030490378
          -0.260030490378         107.656373456283           0.003750439765
           0.260030490378           0.003750439765         108.696495417795

  Mulliken analysis of the total density
  --------------------------------------

    Atom       Charge   Shell Charges
 -----------   ------   -------------------------------------------------------
    1 N    7     7.00   1.02  0.09  0.46  0.45  0.23  0.25  0.18  0.86  0.75  0.68  0.21  0.21  0.45  0.33  0.15  0.56  0.14
    2 N    7     7.00   1.02  0.08  0.48  0.42  0.24  0.25  0.18  0.85  0.74  0.68  0.21  0.22  0.45  0.32  0.15  0.55  0.14
    3 N    7     7.00   1.02  0.09  0.46  0.44  0.23  0.25  0.18  0.86  0.75  0.68  0.21  0.21  0.45  0.33  0.15  0.56  0.14
    4 N    7     7.00   1.02  0.08  0.47  0.44  0.24  0.25  0.18  0.86  0.75  0.68  0.21  0.21  0.45  0.33  0.15  0.56  0.14

       Multipole analysis of the density wrt the origin
       ------------------------------------------------

     L   x y z        total         open         nuclear
     -   - - -        -----         ----         -------
     0   0 0 0     -0.000000      0.000000     28.000000

     1   1 0 0      0.000295      0.000000      0.000000
     1   0 1 0      0.003587      0.000000      0.000000
     1   0 0 1     -0.003357      0.000000      0.000000

     2   2 0 0    -16.736483      0.000000     27.037242
     2   1 1 0      0.006845      0.000000      0.129987
     2   1 0 1     -0.006599      0.000000     -0.129987
     2   0 2 0    -16.707994      0.000000     27.299090
     2   0 1 1     -0.000164      0.000000     -0.001875
     2   0 0 2    -16.764618      0.000000     26.779143


 Parallel integral file used   23777 records with       0 large values


 Task  times  cpu:      234.6s     wall:      316.5s
 Summary of allocated global arrays
-----------------------------------
  No active global arrays



                         GA Statistics for process    0
                         ------------------------------

       create   destroy   get      put      acc     scatter   gather  read&inc
calls:  389      389     2.01e+04 1.22e+04 1.07e+04    0        0       53     
number of processes/call 1.00e+00 1.00e+00 1.00e+00 0.00e+00 0.00e+00
bytes total:             1.97e+08 1.11e+08 4.41e+07 0.00e+00 0.00e+00 4.24e+02
bytes remote:            0.00e+00 0.00e+00 0.00e+00 0.00e+00 0.00e+00 0.00e+00
Max memory consumed for GA by this process: 8102016 bytes
MA_summarize_allocated_blocks: starting scan ...
MA_summarize_allocated_blocks: scan completed: 0 heap blocks, 0 stack blocks
MA usage statistics:

	allocation statistics:
					      heap	     stack
					      ----	     -----
	current number of blocks	         0	         0
	maximum number of blocks	        16	        14
	current total bytes		         0	         0
	maximum total bytes		    222968	  45726552
	maximum total K-bytes		       223	     45727
	maximum total M-bytes		         1	        46


                                NWChem Input Module
                                -------------------





                                     CITATION
                                     --------
                Please cite the following reference when publishing
                           results obtained with NWChem:

                 M. Valiev, E.J. Bylaska, N. Govind, K. Kowalski,
              T.P. Straatsma, H.J.J. van Dam, D. Wang, J. Nieplocha,
                        E. Apra, T.L. Windus, W.A. de Jong
                 "NWChem: a comprehensive and scalable open-source
                  solution for large scale molecular simulations"
                      Comput. Phys. Commun. 181, 1477 (2010)
                           doi:10.1016/j.cpc.2010.04.018

                                      AUTHORS
                                      -------
          E. Apra, E. J. Bylaska, W. A. de Jong, N. Govind, K. Kowalski,
       T. P. Straatsma, M. Valiev, H. J. J. van Dam, D. Wang, T. L. Windus,
        J. Hammond, J. Autschbach, K. Bhaskaran-Nair, J. Brabec, K. Lopata,
       S. A. Fischer, S. Krishnamoorthy, W. Ma, M. Klemm, O. Villa, Y. Chen,
    V. Anisimov, F. Aquino, S. Hirata, M. T. Hackler, T. Risthaus, M. Malagoli,
       A. Marenich, A. Otero-de-la-Roza, J. Mullin, P. Nichols, R. Peverati,
     J. Pittner, Y. Zhao, P.-D. Fan, A. Fonari, M. Williamson, R. J. Harrison,
       J. R. Rehr, M. Dupuis, D. Silverstein, D. M. A. Smith, J. Nieplocha,
        V. Tipparaju, M. Krishnan, B. E. Van Kuiken, A. Vazquez-Mayagoitia,
        L. Jensen, M. Swart, Q. Wu, T. Van Voorhis, A. A. Auer, M. Nooijen,
      L. D. Crosby, E. Brown, G. Cisneros, G. I. Fann, H. Fruchtl, J. Garza,
        K. Hirao, R. A. Kendall, J. A. Nichols, K. Tsemekhman, K. Wolinski,
     J. Anchell, D. E. Bernholdt, P. Borowski, T. Clark, D. Clerc, H. Dachsel,
   M. J. O. Deegan, K. Dyall, D. Elwood, E. Glendening, M. Gutowski, A. C. Hess,
         J. Jaffe, B. G. Johnson, J. Ju, R. Kobayashi, R. Kutteh, Z. Lin,
   R. Littlefield, X. Long, B. Meng, T. Nakajima, S. Niu, L. Pollack, M. Rosing,
   K. Glaesemann, G. Sandrone, M. Stave, H. Taylor, G. Thomas, J. H. van Lenthe,
                               A. T. Wong, Z. Zhang.

 Total times  cpu:      234.6s     wall:      316.5s
