[Molden Format]                                                                 
[ATOMS] AU                                                                      
N        1    7        1.2141712962       -0.0000000000        1.1929119035     
N        2    7       -1.3902703010        0.8023367264        0.5821232275     
N        3    7        0.5808227702        0.8023367264       -1.3773978299     
N        4    7       -0.4047237654       -1.6046734527       -0.3976373012     
[Molden Format]                                                                 
[GTO]                                                                           
  1 0
s  10 1.00
   11420.000000000000        5.2300000000000003E-004                            
   1712.0000000000000        4.0450000000000000E-003                            
   389.30000000000001        2.0774999999999998E-002                            
   110.00000000000000        8.0726999999999993E-002                            
   35.570000000000000       0.23307400000000000                                 
   12.539999999999999       0.43350100000000003                                 
   4.6440000000000001       0.34747200000000000                                 
   1.2929999999999999        0.0000000000000000                                 
  0.51180000000000003       -8.5079999999999999E-003                            
  0.17870000000000000        0.0000000000000000                                 
s  10 1.00
   11420.000000000000       -1.1500000000000000E-004                            
   1712.0000000000000       -8.9499999999999996E-004                            
   389.30000000000001       -4.6239999999999996E-003                            
   110.00000000000000       -1.8527999999999999E-002                            
   35.570000000000000       -5.7339000000000001E-002                            
   12.539999999999999      -0.13207600000000000                                 
   4.6440000000000001      -0.17251000000000000                                 
   1.2929999999999999        0.0000000000000000                                 
  0.51180000000000003       0.59994400000000003                                 
  0.17870000000000000        0.0000000000000000                                 
s  10 1.00
   11420.000000000000        0.0000000000000000                                 
   1712.0000000000000        0.0000000000000000                                 
   389.30000000000001        0.0000000000000000                                 
   110.00000000000000        0.0000000000000000                                 
   35.570000000000000        0.0000000000000000                                 
   12.539999999999999        0.0000000000000000                                 
   4.6440000000000001        0.0000000000000000                                 
   1.2929999999999999        1.0000000000000000                                 
  0.51180000000000003        0.0000000000000000                                 
  0.17870000000000000        0.0000000000000000                                 
s  10 1.00
   11420.000000000000        0.0000000000000000                                 
   1712.0000000000000        0.0000000000000000                                 
   389.30000000000001        0.0000000000000000                                 
   110.00000000000000        0.0000000000000000                                 
   35.570000000000000        0.0000000000000000                                 
   12.539999999999999        0.0000000000000000                                 
   4.6440000000000001        0.0000000000000000                                 
   1.2929999999999999        0.0000000000000000                                 
  0.51180000000000003        0.0000000000000000                                 
  0.17870000000000000        1.0000000000000000                                 
p   5 1.00
   26.629999999999999        1.4670000000000001E-002                            
   5.9480000000000004        9.1763999999999998E-002                            
   1.7420000000000000       0.29868299999999998                                 
  0.55500000000000005        0.0000000000000000                                 
  0.17249999999999999        0.0000000000000000                                 
p   5 1.00
   26.629999999999999        0.0000000000000000                                 
   5.9480000000000004        0.0000000000000000                                 
   1.7420000000000000        0.0000000000000000                                 
  0.55500000000000005        1.0000000000000000                                 
  0.17249999999999999        0.0000000000000000                                 
p   5 1.00
   26.629999999999999        0.0000000000000000                                 
   5.9480000000000004        0.0000000000000000                                 
   1.7420000000000000        0.0000000000000000                                 
  0.55500000000000005        0.0000000000000000                                 
  0.17249999999999999        1.0000000000000000                                 
d   2 1.00
   1.6539999999999999        1.0000000000000000                                 
  0.46899999999999997        0.0000000000000000                                 
d   2 1.00
   1.6539999999999999        0.0000000000000000                                 
  0.46899999999999997        1.0000000000000000                                 
f   1 1.00
   1.0930000000000000        1.0000000000000000                                 

  2 0
s  10 1.00
   11420.000000000000        5.2300000000000003E-004                            
   1712.0000000000000        4.0450000000000000E-003                            
   389.30000000000001        2.0774999999999998E-002                            
   110.00000000000000        8.0726999999999993E-002                            
   35.570000000000000       0.23307400000000000                                 
   12.539999999999999       0.43350100000000003                                 
   4.6440000000000001       0.34747200000000000                                 
   1.2929999999999999        0.0000000000000000                                 
  0.51180000000000003       -8.5079999999999999E-003                            
  0.17870000000000000        0.0000000000000000                                 
s  10 1.00
   11420.000000000000       -1.1500000000000000E-004                            
   1712.0000000000000       -8.9499999999999996E-004                            
   389.30000000000001       -4.6239999999999996E-003                            
   110.00000000000000       -1.8527999999999999E-002                            
   35.570000000000000       -5.7339000000000001E-002                            
   12.539999999999999      -0.13207600000000000                                 
   4.6440000000000001      -0.17251000000000000                                 
   1.2929999999999999        0.0000000000000000                                 
  0.51180000000000003       0.59994400000000003                                 
  0.17870000000000000        0.0000000000000000                                 
s  10 1.00
   11420.000000000000        0.0000000000000000                                 
   1712.0000000000000        0.0000000000000000                                 
   389.30000000000001        0.0000000000000000                                 
   110.00000000000000        0.0000000000000000                                 
   35.570000000000000        0.0000000000000000                                 
   12.539999999999999        0.0000000000000000                                 
   4.6440000000000001        0.0000000000000000                                 
   1.2929999999999999        1.0000000000000000                                 
  0.51180000000000003        0.0000000000000000                                 
  0.17870000000000000        0.0000000000000000                                 
s  10 1.00
   11420.000000000000        0.0000000000000000                                 
   1712.0000000000000        0.0000000000000000                                 
   389.30000000000001        0.0000000000000000                                 
   110.00000000000000        0.0000000000000000                                 
   35.570000000000000        0.0000000000000000                                 
   12.539999999999999        0.0000000000000000                                 
   4.6440000000000001        0.0000000000000000                                 
   1.2929999999999999        0.0000000000000000                                 
  0.51180000000000003        0.0000000000000000                                 
  0.17870000000000000        1.0000000000000000                                 
p   5 1.00
   26.629999999999999        1.4670000000000001E-002                            
   5.9480000000000004        9.1763999999999998E-002                            
   1.7420000000000000       0.29868299999999998                                 
  0.55500000000000005        0.0000000000000000                                 
  0.17249999999999999        0.0000000000000000                                 
p   5 1.00
   26.629999999999999        0.0000000000000000                                 
   5.9480000000000004        0.0000000000000000                                 
   1.7420000000000000        0.0000000000000000                                 
  0.55500000000000005        1.0000000000000000                                 
  0.17249999999999999        0.0000000000000000                                 
p   5 1.00
   26.629999999999999        0.0000000000000000                                 
   5.9480000000000004        0.0000000000000000                                 
   1.7420000000000000        0.0000000000000000                                 
  0.55500000000000005        0.0000000000000000                                 
  0.17249999999999999        1.0000000000000000                                 
d   2 1.00
   1.6539999999999999        1.0000000000000000                                 
  0.46899999999999997        0.0000000000000000                                 
d   2 1.00
   1.6539999999999999        0.0000000000000000                                 
  0.46899999999999997        1.0000000000000000                                 
f   1 1.00
   1.0930000000000000        1.0000000000000000                                 

  3 0
s  10 1.00
   11420.000000000000        5.2300000000000003E-004                            
   1712.0000000000000        4.0450000000000000E-003                            
   389.30000000000001        2.0774999999999998E-002                            
   110.00000000000000        8.0726999999999993E-002                            
   35.570000000000000       0.23307400000000000                                 
   12.539999999999999       0.43350100000000003                                 
   4.6440000000000001       0.34747200000000000                                 
   1.2929999999999999        0.0000000000000000                                 
  0.51180000000000003       -8.5079999999999999E-003                            
  0.17870000000000000        0.0000000000000000                                 
s  10 1.00
   11420.000000000000       -1.1500000000000000E-004                            
   1712.0000000000000       -8.9499999999999996E-004                            
   389.30000000000001       -4.6239999999999996E-003                            
   110.00000000000000       -1.8527999999999999E-002                            
   35.570000000000000       -5.7339000000000001E-002                            
   12.539999999999999      -0.13207600000000000                                 
   4.6440000000000001      -0.17251000000000000                                 
   1.2929999999999999        0.0000000000000000                                 
  0.51180000000000003       0.59994400000000003                                 
  0.17870000000000000        0.0000000000000000                                 
s  10 1.00
   11420.000000000000        0.0000000000000000                                 
   1712.0000000000000        0.0000000000000000                                 
   389.30000000000001        0.0000000000000000                                 
   110.00000000000000        0.0000000000000000                                 
   35.570000000000000        0.0000000000000000                                 
   12.539999999999999        0.0000000000000000                                 
   4.6440000000000001        0.0000000000000000                                 
   1.2929999999999999        1.0000000000000000                                 
  0.51180000000000003        0.0000000000000000                                 
  0.17870000000000000        0.0000000000000000                                 
s  10 1.00
   11420.000000000000        0.0000000000000000                                 
   1712.0000000000000        0.0000000000000000                                 
   389.30000000000001        0.0000000000000000                                 
   110.00000000000000        0.0000000000000000                                 
   35.570000000000000        0.0000000000000000                                 
   12.539999999999999        0.0000000000000000                                 
   4.6440000000000001        0.0000000000000000                                 
   1.2929999999999999        0.0000000000000000                                 
  0.51180000000000003        0.0000000000000000                                 
  0.17870000000000000        1.0000000000000000                                 
p   5 1.00
   26.629999999999999        1.4670000000000001E-002                            
   5.9480000000000004        9.1763999999999998E-002                            
   1.7420000000000000       0.29868299999999998                                 
  0.55500000000000005        0.0000000000000000                                 
  0.17249999999999999        0.0000000000000000                                 
p   5 1.00
   26.629999999999999        0.0000000000000000                                 
   5.9480000000000004        0.0000000000000000                                 
   1.7420000000000000        0.0000000000000000                                 
  0.55500000000000005        1.0000000000000000                                 
  0.17249999999999999        0.0000000000000000                                 
p   5 1.00
   26.629999999999999        0.0000000000000000                                 
   5.9480000000000004        0.0000000000000000                                 
   1.7420000000000000        0.0000000000000000                                 
  0.55500000000000005        0.0000000000000000                                 
  0.17249999999999999        1.0000000000000000                                 
d   2 1.00
   1.6539999999999999        1.0000000000000000                                 
  0.46899999999999997        0.0000000000000000                                 
d   2 1.00
   1.6539999999999999        0.0000000000000000                                 
  0.46899999999999997        1.0000000000000000                                 
f   1 1.00
   1.0930000000000000        1.0000000000000000                                 

  4 0
s  10 1.00
   11420.000000000000        5.2300000000000003E-004                            
   1712.0000000000000        4.0450000000000000E-003                            
   389.30000000000001        2.0774999999999998E-002                            
   110.00000000000000        8.0726999999999993E-002                            
   35.570000000000000       0.23307400000000000                                 
   12.539999999999999       0.43350100000000003                                 
   4.6440000000000001       0.34747200000000000                                 
   1.2929999999999999        0.0000000000000000                                 
  0.51180000000000003       -8.5079999999999999E-003                            
  0.17870000000000000        0.0000000000000000                                 
s  10 1.00
   11420.000000000000       -1.1500000000000000E-004                            
   1712.0000000000000       -8.9499999999999996E-004                            
   389.30000000000001       -4.6239999999999996E-003                            
   110.00000000000000       -1.8527999999999999E-002                            
   35.570000000000000       -5.7339000000000001E-002                            
   12.539999999999999      -0.13207600000000000                                 
   4.6440000000000001      -0.17251000000000000                                 
   1.2929999999999999        0.0000000000000000                                 
  0.51180000000000003       0.59994400000000003                                 
  0.17870000000000000        0.0000000000000000                                 
s  10 1.00
   11420.000000000000        0.0000000000000000                                 
   1712.0000000000000        0.0000000000000000                                 
   389.30000000000001        0.0000000000000000                                 
   110.00000000000000        0.0000000000000000                                 
   35.570000000000000        0.0000000000000000                                 
   12.539999999999999        0.0000000000000000                                 
   4.6440000000000001        0.0000000000000000                                 
   1.2929999999999999        1.0000000000000000                                 
  0.51180000000000003        0.0000000000000000                                 
  0.17870000000000000        0.0000000000000000                                 
s  10 1.00
   11420.000000000000        0.0000000000000000                                 
   1712.0000000000000        0.0000000000000000                                 
   389.30000000000001        0.0000000000000000                                 
   110.00000000000000        0.0000000000000000                                 
   35.570000000000000        0.0000000000000000                                 
   12.539999999999999        0.0000000000000000                                 
   4.6440000000000001        0.0000000000000000                                 
   1.2929999999999999        0.0000000000000000                                 
  0.51180000000000003        0.0000000000000000                                 
  0.17870000000000000        1.0000000000000000                                 
p   5 1.00
   26.629999999999999        1.4670000000000001E-002                            
   5.9480000000000004        9.1763999999999998E-002                            
   1.7420000000000000       0.29868299999999998                                 
  0.55500000000000005        0.0000000000000000                                 
  0.17249999999999999        0.0000000000000000                                 
p   5 1.00
   26.629999999999999        0.0000000000000000                                 
   5.9480000000000004        0.0000000000000000                                 
   1.7420000000000000        0.0000000000000000                                 
  0.55500000000000005        1.0000000000000000                                 
  0.17249999999999999        0.0000000000000000                                 
p   5 1.00
   26.629999999999999        0.0000000000000000                                 
   5.9480000000000004        0.0000000000000000                                 
   1.7420000000000000        0.0000000000000000                                 
  0.55500000000000005        0.0000000000000000                                 
  0.17249999999999999        1.0000000000000000                                 
d   2 1.00
   1.6539999999999999        1.0000000000000000                                 
  0.46899999999999997        0.0000000000000000                                 
d   2 1.00
   1.6539999999999999        0.0000000000000000                                 
  0.46899999999999997        1.0000000000000000                                 
f   1 1.00
   1.0930000000000000        1.0000000000000000                                 

                                                                                
[MO]
 Sym= A
 Ene=  -15.750876104515925     
 Spin= Alpha
 Occup= 1.0
  1        0.4924641109
  2        0.0005936241
  3        0.0205652221
  4        0.0007804202
  5       -0.0012449588
  6        0.0000001449
  7       -0.0012429179
  8        0.0003101918
  9        0.0000028385
 10        0.0002616059
 11       -0.0002063946
 12        0.0000006208
 13       -0.0002134549
 14        0.0000314767
 15       -0.0000732491
 16        0.0000417724
 17        0.0000025693
 18        0.0002195141
 19       -0.0000035408
 20       -0.0000184594
 21        0.0000211928
 22       -0.0000027334
 23        0.0000028826
 24       -0.0000642298
 25       -0.0000053405
 26       -0.0000014941
 27       -0.0000003850
 28       -0.0000022884
 29       -0.0000114643
 30        0.0000003370
 31        0.0000177996
 32        0.0000159465
 33        0.0000008180
 34       -0.0000109345
 35       -0.0000004982
 36        0.4657793385
 37        0.0006398503
 38        0.0194057784
 39        0.0008348889
 40        0.0013385908
 41       -0.0007778942
 42       -0.0005693680
 43       -0.0002181511
 44        0.0001453636
 45        0.0000835444
 46        0.0002746138
 47       -0.0001546890
 48       -0.0001171050
 49        0.0000689669
 50       -0.0000247902
 51       -0.0000441767
 52       -0.0001607550
 53       -0.0001235390
 54        0.0000685036
 55       -0.0000031982
 56       -0.0000031737
 57        0.0000063720
 58        0.0000206299
 59        0.0000056207
 60       -0.0000111240
 61       -0.0000002867
 62       -0.0000037612
 63       -0.0000036637
 64       -0.0000047984
 65        0.0000127390
 66        0.0000099999
 67        0.0000056584
 68       -0.0000014555
 69        0.0000009910
 70       -0.0000190967
 71        0.5113720425
 72        0.0005601944
 73        0.0213891098
 74        0.0007417556
 75       -0.0006219158
 76       -0.0008666408
 77        0.0014977585
 78        0.0001865132
 79        0.0002242349
 80       -0.0004043563
 81       -0.0000879413
 82       -0.0001290735
 83        0.0002191969
 84       -0.0000507493
 85       -0.0000246045
 86        0.0000753538
 87        0.0000714413
 88       -0.0001183760
 89       -0.0001745576
 90        0.0000182680
 91        0.0000135111
 92       -0.0000317791
 93       -0.0000295341
 94        0.0000622324
 95        0.0000693231
 96       -0.0000049173
 97       -0.0000055638
 98       -0.0000018295
 99       -0.0000005831
100       -0.0000031646
101        0.0000054816
102        0.0000153351
103        0.0000198560
104        0.0000000070
105       -0.0000230073
106        0.4855986199
107        0.0006061329
108        0.0202684048
109        0.0007953733
110        0.0004097105
111        0.0016333975
112        0.0004069039
113       -0.0000612937
114       -0.0003511954
115       -0.0001093231
116        0.0000785216
117        0.0002894974
118        0.0000675703
119       -0.0000604141
120        0.0001210010
121       -0.0000605869
122        0.0001031879
123        0.0000246556
124        0.0000913168
125        0.0000161624
126       -0.0000306114
127        0.0000144490
128       -0.0000068968
129       -0.0000045302
130       -0.0000387019
131        0.0000019455
132       -0.0000071240
133        0.0000038853
134       -0.0000085132
135        0.0000115441
136        0.0000043409
137        0.0000026768
138        0.0000098279
139       -0.0000159970
140       -0.0000081957
 Sym= A
 Ene=  -15.749967292895796     
 Spin= Alpha
 Occup= 1.0
  1        0.2984998701
  2       -0.0005815475
  3        0.0128761025
  4       -0.0006904947
  5       -0.0008116911
  6        0.0000041412
  7       -0.0008130014
  8        0.0005293773
  9       -0.0006548907
 10        0.0015515054
 11        0.0001832821
 12       -0.0001850746
 13        0.0004709964
 14        0.0000700973
 15        0.0000062687
 16       -0.0000763660
 17        0.0000567742
 18        0.0000753961
 19        0.0001309690
 20        0.0001356967
 21        0.0002264451
 22       -0.0003621418
 23        0.0002002090
 24       -0.0003792580
 25        0.0004401683
 26       -0.0000185081
 27        0.0000286138
 28        0.0000390835
 29       -0.0000258248
 30       -0.0000005207
 31       -0.0000535139
 32        0.0000813491
 33       -0.0000853207
 34       -0.0000637367
 35       -0.0001118459
 36        0.1469433171
 37       -0.0002612724
 38        0.0063280248
 39       -0.0003063465
 40        0.0004580183
 41       -0.0002587912
 42       -0.0002011590
 43       -0.0006902606
 44       -0.0004002768
 45        0.0009323331
 46       -0.0002064519
 47       -0.0001082057
 48        0.0002736706
 49       -0.0000000722
 50        0.0000639911
 51       -0.0000639190
 52       -0.0001036209
 53        0.0001318841
 54        0.0000545598
 55       -0.0001012217
 56        0.0002555432
 57       -0.0001543215
 58       -0.0001306031
 59        0.0006311772
 60        0.0000740097
 61        0.0000049907
 62       -0.0000041831
 63       -0.0000093668
 64        0.0000862879
 65       -0.0000093331
 66        0.0001135668
 67       -0.0001012599
 68        0.0000218823
 69       -0.0000854665
 70        0.0000002477
 71       -0.8177023132
 72        0.0016840577
 73       -0.0353525730
 74        0.0020190954
 75        0.0010786181
 76        0.0015006008
 77       -0.0025855280
 78       -0.0013243207
 79       -0.0021341398
 80        0.0033201456
 81       -0.0004336035
 82       -0.0006850469
 83        0.0010734669
 84        0.0000219249
 85        0.0000338423
 86       -0.0000557672
 87       -0.0000309293
 88        0.0001000088
 89        0.0000940752
 90       -0.0003094824
 91       -0.0000807406
 92        0.0003902230
 93        0.0004615941
 94       -0.0006355078
 95       -0.0010432358
 96        0.0000238862
 97        0.0000132931
 98        0.0000016780
 99       -0.0000429259
100        0.0000428394
101       -0.0000171088
102       -0.0000287325
103       -0.0000827186
104        0.0000120748
105        0.0000966951
106        0.4175885702
107       -0.0007949632
108        0.0180220061
109       -0.0009429842
110        0.0003833661
111        0.0015236826
112        0.0003709053
113       -0.0006265238
114       -0.0021062702
115        0.0003921560
116       -0.0001933265
117       -0.0006571258
118        0.0001023210
119       -0.0000044241
120        0.0000107116
121       -0.0000062875
122       -0.0000229034
123        0.0000809425
124        0.0001932776
125        0.0002278534
126       -0.0004625136
127        0.0002346602
128       -0.0004765889
129        0.0001743151
130        0.0002754342
131        0.0000252493
132       -0.0000357352
133       -0.0000226961
134       -0.0000970872
135        0.0000446309
136       -0.0000087238
137        0.0000213394
138        0.0000625746
139        0.0000768120
140        0.0001057193
 Sym= A
 Ene=  -15.749949657954971     
 Spin= Alpha
 Occup= 1.0
  1        0.7810331112
  2       -0.0015667898
  3        0.0337476995
  4       -0.0018735087
  5       -0.0021498825
  6       -0.0000029375
  7       -0.0021336373
  8        0.0028871771
  9        0.0003520651
 10        0.0026638598
 11        0.0009249705
 12        0.0001004645
 13        0.0008571103
 14        0.0000138569
 15       -0.0000589973
 16        0.0000451404
 17       -0.0000428241
 18        0.0001256016
 19       -0.0000573372
 20       -0.0002398487
 21        0.0003637087
 22       -0.0001238600
 23       -0.0001534752
 24       -0.0012573363
 25       -0.0001923997
 26       -0.0000084294
 27       -0.0000010500
 28       -0.0000218026
 29       -0.0000349717
 30       -0.0000061822
 31        0.0000917411
 32        0.0000602597
 33        0.0000093321
 34       -0.0000263333
 35        0.0001041016
 36       -0.2306770279
 37        0.0004220833
 38       -0.0099558162
 39        0.0005003113
 40       -0.0007324415
 41        0.0004159941
 42        0.0002985169
 43        0.0014587552
 44       -0.0000448908
 45        0.0002698167
 46        0.0004433443
 47       -0.0000271625
 48        0.0000713910
 49        0.0000739101
 50       -0.0000682825
 51       -0.0000056276
 52        0.0000321750
 53        0.0001231153
 54       -0.0000968500
 55        0.0004262654
 56       -0.0002891742
 57       -0.0001370913
 58       -0.0002671443
 59        0.0001507337
 60       -0.0001808290
 61        0.0000494857
 62        0.0000290524
 63       -0.0000215173
 64       -0.0000893694
 65       -0.0001009546
 66        0.0000318961
 67       -0.0000590876
 68        0.0000137974
 69        0.0000326558
 70       -0.0000837142
 71       -0.0311196890
 72        0.0000663728
 73       -0.0013365922
 74        0.0000798328
 75        0.0000345349
 76        0.0000518877
 77       -0.0000982162
 78        0.0007530521
 79        0.0002934197
 80        0.0006744623
 81        0.0002100898
 82        0.0000828641
 83        0.0001950242
 84       -0.0000252225
 85       -0.0000637269
 86        0.0000889494
 87       -0.0000816550
 88        0.0001344230
 89       -0.0000141839
 90       -0.0001045062
 91       -0.0002193029
 92        0.0003238091
 93       -0.0002654922
 94        0.0004150925
 95       -0.0000879788
 96       -0.0000280038
 97        0.0000249178
 98        0.0000479828
 99        0.0000257165
100        0.0000090010
101       -0.0000739912