 --invoking executable--
/usr/local/cfour/bin/xjoda


   *************************************************************************
         <<<     CCCCCC     CCCCCC   |||     CCCCCC     CCCCCC   >>>
       <<<      CCC        CCC       |||    CCC        CCC         >>>
      <<<      CCC        CCC        |||   CCC        CCC            >>>
    <<<        CCC        CCC        |||   CCC        CCC              >>>
      <<<      CCC        CCC        |||   CCC        CCC            >>>
       <<<      CCC        CCC       |||    CCC        CCC         >>>
         <<<     CCCCCC     CCCCCC   |||     CCCCCC     CCCCCC   >>>
   *************************************************************************

     ****************************************************************
     * CFOUR Coupled-Cluster techniques for Computational Chemistry *
     ****************************************************************


   Department of Chemistry                Institut fuer Physikalische Chemie
   University of Texas at Austin          Universitaet Mainz
   Austin, TX  78712, USA                 D-55099 Mainz, Germany

                       Version 2.00beta

                     kbob-G41MT-S2                                     
                     Пт. мая 15 22:00:32 KRAT 2015                
                     integer*8 version is running

********************************************************************************
*                          Input from ZMAT file                                *
********************************************************************************
test HF/cc-pVTZ energy                                                          
N       0.5200      0.5300      0.5100                                          
N      -0.5200     -0.5200      0.5200                                          
N      -0.5200      0.5200     -0.5200                                          
N       0.5200     -0.5200     -0.5200                                          
                                                                                
*CFOUR(CALC=HF                                                                  
SCF_CONV=9                                                                      
BASIS=cc-pVTZ                                                                   
COORD=CARTESIAN)                                                                
                                                                                
********************************************************************************
    -------------------------------------------------------------------
                    CFOUR Control Parameters 
    -------------------------------------------------------------------
        External           Internal           Value            Units
          Name               Name
    -------------------------------------------------------------------
       ABCDTYPE             IABCDT         STANDARD     [  0]   ***   
       ANHARMONIC           IANHAR         OFF          [  0]   ***   
       ANH_ALGORIT          IANALG         STANDARD     [  0]   ***   
       ANH_DERIVAT          IANDER         SECOND       [  1]   ***   
       ANH_STEPSIZ          ICUBST             50000          x 10-6  
       ANH_SYMMETR          IANHSM         ABELIAN      [  0]   ***   
       AO_LADDERS           IAOLAD         SINGLEPASS   [  1]   ***   
       BASIS                IBASIS         PVTZ         [ 14]   ***   
       BREIT                IBREIT         OFF          [  0]   ***   
       BRUCK_CONV           IBRTOL          10D-  4             ***   
       BRUECKNER            IBRKNR             OFF      [  0]   ***   
       BUFFERSIZE           IBUFFS            600               ***   
       CACHE_RECS           ICHREC             10               ***   
       CALCLEVEL            ICLLVL           SCF        [  0]   ***   
       CCORBOPT             ICCORB             OFF      [  0] x 0.01  
       CC_CONV              ICCCNV          10D-  7             ***   
       CC_EXPORDER          ICCEOR              0               ***   
       CC_EXTRAPOL          ICCEXT             DIIS     [  1]   ***   
       CC_MAXCYC            ICCCYC              0              cycles 
       CC_PROGRAM           ICCPRO         VCC          [  0]   ***   
       CHARGE               ICHRGE              0               ***   
       CHOLESKY             ICHOLE         OFF          [  0]   ***   
       CIS_CONV             ICISTL              5               ***   
       COMM_SIZE            IPSIZE            ***               ***   
       CONSTANT             ICONST         OLD          [  1]   ***   
       CONTINUUM            ICONTU         NONE         [  0]   ***   
       CONTRACTION          ICNTYP          GENERAL     [  1]   ***   
       COORDINATES          ICOORD         CARTESIAN    [  1]   ***   
       CPHF_CONVER          ICPHFT          10D- 16             ***   
       CPHF_MAXCYC          ICPHFC             64              cycles 
       CUBIC                ICUBIC         OFF          [  0]   ***   
       CURVILINEAR          ICURVY            OFF       [  0]   ***   
       DBOC                 IDBOC          OFF          [  0]   ***   
       DCT                  IDCT           OFF          [  0]   ***   
       DERIV_LEV            IDRLVL            ZERO      [  0]   ***   
       DIAG_MRCC            IEOMST          10D-  0             ***   
       DIFF_TYPE            IDIFTY         RELAXED      [  0]   ***   
       DIRECT               IDIRCT         OFF          [  0]   ***   
       DROPMO               IDRPMO      NONE         
       ECP                  IECP           OFF          [  0]   ***   
       EIGENVECTOR          IVEC                1               ***   
       EL_ANHARM            IELANH         OFF          [  0]   ***   
       EOMFOLLOW            IEOMSR         ENERGY       [  0]   ***   
       EOM_MRCC             IMRCCE         NEW          [  1]   ***   
       EOM_NONIT            EOMNON         OFF          [  0]   ***   
       EOM_NSING            IEOMSI          10D-  0             ***   
       EOM_NSTATES          IMRCCD         DAVIDSON     [  0]   ***   
       EOM_NTRIP            IEOMTR          10D-  0             ***   
       EOM_ORDER            IEXORD         ENERGY       [  0]   ***   
       ESTATE_CONV          IEXTOL          10D-  5             ***   
       ESTATE_DIAG          IEXDIG         ITERATIVE    [  0]   ***   
       ESTATE_LOCK          IESLOC         ON           [  1]   ***   
       ESTATE_MAXC          IEXMXC             20               ***   
       ESTATE_PROP          IEXPRP         OFF          [  0]   ***   
       EVAL_HESS            IRECAL              0            # of cyc.
       EXCITATION           IEXCIT              0               ***   
       EXCITE               IEXCIT         NONE         [  0]   ***   
       FCGRADNEW            IFCGNW         OFF          [  0]   ***   
       FC_FIELD             IFINFC              0             x 10-6  
       FD_CALTYPE           IFDCAL         GRADONLY     [  0]   ***   
       FD_PROJECT           IFDPRJ         OFF          [  1]   ***   
       FD_STEPSIZE          IDISFD              0            10-4 bohr
       FD_USEGROUP          IFDGRP         FULL         [  0]   ***   
       FILE_RECSIZ          IFLREC              4096           words  
       FINITE_PERT          IFIPER              0             x 10-6  
       FIXGEOM              IFIXGM         OFF          [  0]   ***   
       FOCK                 IFOCK          AO           [  1]   ***   
       FREQ_ALGORI          IVIALG         STANDARD     [  0]   ***   
       FROZEN_CORE          IFROCO         OFF          [  0]   ***   
       FROZEN_VIRT          IFROVI         OFF          [  0]   ***   
       GAMMA_ABCD           IGABCD         STORE        [  0]   ***   
       GAMMA_ABCI           IGABCI         STORE        [  0]   ***   
       GENBAS_1             IGNBS1              0               ***   
       GENBAS_2             IGNBS2              0               ***   
       GENBAS_3             IGNBS3              0               ***   
       GENBAS_4             IGNBS4              0               ***   
       GEO_CONV             ICONTL              5              H/bohr 
       GEO_MAXCYC           IOPTCY             50               ***   
       GEO_MAXSTEP          IMXSTP            300            millibohr
       GEO_METHOD           INR            SINGLE_POINT [  5]   ***   
       GIAO                 IGIAO          OFF          [  1]   ***   
       GIMIC                IGIMIC         OFF          [  0]   ***   
       GRID                 IGRID          OFF          [  0]   ***   
       GRID_ALGO            IGALGO         SERIAL       [  0]   ***   
       GUESS                IGUESS            MOREAD    [  0]   ***   
       HBAR                 IHBAR              OFF      [  0]   ***   
       HESS_TYPE            IHESTP         SCF          [  0]   ***   
       HF2_FILE             IHF2Fl         USE          [  1]   ***   
       HFSTABILITY          ISTABL         OFF          [  0]   ***   
       INCORE               INCORE             OFF      [  0]   ***   
       INPUT_MRCC           IMRCC          ON           [  1]   ***   
       INTEGRALS            INTTYP             VMOL     [  1]   ***   
       JODA_PRINT           IJPRNT              0               ***   
       LINDEP_TOL           ILINDP              8               ***   
       LINEQ_CONV           IZTACN          10D-  7           cycles  
       LINEQ_EXPOR          ILMAXD              5               ***   
       LINEQ_MAXCY          ILMAXC             50               ***   
       LINEQ_TYPE           ILTYPE         DIIS         [  1]   ***   
       LOCK_ORBOCC          ILOCOC             OFF      [  0]   ***   
       MEMORY_SIZE          IMEMSZ         100000000           words  
       MEM_UNIT             IMEMU          INTEGERWORDS [  0]   ***   
       MRCC                 IMRCCC         OFF          [  0]   ***   
       MULTIPLICTY          IMULTP              1               ***   
       NEGEVAL              IDIE             ABORT      [  0]   ***   
       NEWNORM              INEWNO         OFF          [  0]   ***   
       NON-HF               INONHF             OFF      [  0]   ***   
       NTOP_TAMP            ITOPT2             15               ***   
       NUC_MODEL            INUCMO         POINT        [  0]   ***   
       OCCUPATION           IOCCU   ESTIMATED BY SCF 
       OPEN-SHELL           IOPEN          SPIN-ORBITAL [  0]   ***   
       ORBITALS             IORBTP           STANDARD   [  0]   ***   
       PARALLEL             IPARAL         ON           [  1]   ***   
       PARA_INT             IPINTS         ON           [  1]   ***   
       PARA_PRINT           IPPRIN              0               ***   
       PERT_ORB             IPTORB         STANDARD     [  0]   ***   
       POINTS               IGRDFD              0               ***   
       PRINT                IPRNT               0               ***   
       PROPS                IPROPS             OFF      [  0]   ***   
       PROP_INTEGR          IINTYP         INTERNAL     [  0]   ***   
       PSI                  IPSI           OFF          [  0]   ***   
       QUARTIC              IQUART         OFF          [  0]   ***   
       RAMAN_INT            IRAMIN         OFF          [  0]   ***   
       RAMAN_ORB            IRAMRE         UNRELAXED    [  0]   ***   
       RDO                  IRDOFM             OFF      [  0]   ***   
       REFERENCE            IREFNC             RHF      [  0]   ***   
       RELATIVIST           IRELAT         OFF          [  0]   ***   
       RELAX_DENS           IRDENS             OFF      [  0]   ***   
       RESET_FLAGS          IRESET             OFF      [  0]   ***   
       RESTART_CC           ICCRES         OFF          [  0]   ***   
       ROT_EVEC             ROTVEC              0               ***   
       SAVE_INTS            ISVINT             OFF      [  0]   ***   
       SCALE_ON             ISTCRT              0               ***   
       SCF_CONV             ISCFCV          10D-  9             ***   
       SCF_DAMPING          IDAMP               0             x 10-3  
       SCF_EXPORDE          IRPPOR              6               ***   
       SCF_EXPSTAR          IRPPLS              8               ***   
       SCF_EXTRAPO          IRPP                ON      [  1]   ***   
       SCF_MAXCYC           ISCFCY            150              cycles 
       SCF_NOSTOP           ISCFST         OFF          [  0]   ***   
       SCF_PRINT            ISCFPR              0               ***   
       SD_FIELD             IFINSD              0             x 10-6  
       SEQUENCE             ISEQUE         OFF          [  0]   ***   
       SOPERT               IPERSO         OFF          [  0]   ***   
       SPHERICAL            IDFGHI             ON       [  1]   ***   
       SPINORBIT            ISOCAL         OFF          [  0]   ***   
       SPINROTATIO          ISRCON         OFF          [  0]   ***   
       SPIN_FLIP            ISPFLP         OFF          [  0]   ***   
       SPIN_ORBIT           ISPORB         OFF          [  0]   ***   
       SPIN_SCAL            ISCSMP         OFF          [  0]   ***   
       SUBGROUP             ISUBGP         DEFAULT      [  0]   ***   
       SUBGRPAXIS           ISBXYZ         X            [  0]   ***   
       SYMMETRY             ISYM             ON         [  0]   ***   
       SYM_CHECK            ISYMCK         OVERRIDE     [  1]   ***   
       T3_EXTRAPOL          IT3EXT         OFF          [  0]   ***   
       TAMP_SUM             IEVERY              0               ***   
       TESTSUITE            ITESTS         OFF          [  0]   ***   
       THERMOCH             ITHERM         OFF          [  0]   ***   
       TOL_CHOLESK          ITOLCH          10D-  4             ***   
       TRANGRAD             IRESRM         OFF          [  0]   ***   
       TRANS_INV            ITRAIN         USE          [  0]   ***   
       TREAT_PERT           ITREAT         SIMULTANEOUS [  0]   ***   
       UIJ_THRESHO          IUIJTH              1               ***   
       UNITS                IUNITS         ANGSTROM     [  0]   ***   
       UNOS                 IUNOS          OFF          [  0]   ***   
       UPDATE_HESS          IHUPDT         ON           [  1]   ***   
       VIBPHASE             ISETPH         STANDARD     [  0]   ***   
       VIBRATION            IVIB              NO        [  0]   ***   
       VIB_ALGORIT          IGEALG         STANDARD     [  0]   ***   
       VNATORB              IVNORB         OFF          [  0]   ***   
       VTRAN                IVTRAN         FULL/PARTIAL [  0]   ***   
       XFIELD               IXEFLD              0             x 10-6  
       XFORM_TOL            IXFTOL          10D- 11             ***   
       YFIELD               IYEFLD              0             x 10-6  
       ZFIELD               IZEFLD              0             x 10-6  
    -------------------------------------------------------------------
  @GETXYZ-I,     4 atoms read from ZMAT.
  1  N          7    14.00307
  2  N          7    14.00307
  3  N          7    14.00307
  4  N          7    14.00307
  1  N          7    14.00307
  2  N          7    14.00307
  3  N          7    14.00307
  4  N          7    14.00307
 factor:   60.199719999999999     
   Rotational constants (in cm-1): 
          0.5532377061             0.5564759291             0.5597913262
   Rotational constants (in MHz): 
      16585.6515012674         16682.7309988681         16782.1241148580
********************************************************************************
   The full molecular point group is C1  .
   The largest Abelian subgroup of the full molecular point group is C1  .
   The computational point group is C1  .
********************************************************************************
 ----------------------------------------------------------------
 Z-matrix   Atomic            Coordinates (in bohr)
  Symbol    Number           X              Y              Z
 ----------------------------------------------------------------
     N         7         1.21417130    -0.00000000     1.19291190
     N         7        -1.39027030     0.80233673     0.58212323
     N         7         0.58082277     0.80233673    -1.37739783
     N         7        -0.40472377    -1.60467345    -0.39763730
 ----------------------------------------------------------------
   Interatomic distance matrix (Angstroms) 

                 N             N             N             N    
                [ 1]        [ 2]        [ 3]        [ 4]
  N    [ 1]     0.00000
  N    [ 2]     1.47790     0.00000
  N    [ 3]     1.46376     1.47078     0.00000
  N    [ 4]     1.47085     1.47078     1.47078     0.00000
   Rotational constants (in cm-1): 
          0.5597913262             0.5564759291             0.5532377061
   Rotational constants (in MHz): 
      16782.1241148580         16682.7309988681         16585.6515012675
  There are  120 basis functions.
 @GEOPT-W, Archive file not created for single-point calculation.
  @CHECKOUT-I, Total execution time (CPU/WALL):        0.77/       0.74 seconds.
--executable xjoda finished with status     0 in        0.78 seconds (walltime).
 --invoking executable--
/usr/local/cfour/bin/xvmol
 Serial version of molecule started
********************************************************************************
                    Input from MOL file
********************************************************************************
INTGRL        1    0    1    0    0    0    0    0    0                         
         *** CFOUR Program System (Release V0.1) ***                            
test HF/cc-pVTZ energy                                                          
    4    0            0.10E-08              0    0                              
   9999.00      3.00                                                            
          7.00000000    1    4    1    1    1    1                              
N #1   1.214171296190524  -0.000000000000001   1.192911903543903                
   10    4                                                                      
   11420.000000000000        5.2300000000000003E-004  -1.1500000000000000E-004  
   1712.0000000000000        4.0450000000000000E-003  -8.9499999999999996E-004  
   389.30000000000001        2.0774999999999998E-002  -4.6239999999999996E-003  
   110.00000000000000        8.0726999999999993E-002  -1.8527999999999999E-002  
   35.570000000000000       0.23307400000000000       -5.7339000000000001E-002  
   12.539999999999999       0.43350100000000003      -0.13207600000000000       
   4.6440000000000001       0.34747200000000000      -0.17251000000000000       
   1.2929999999999999        0.0000000000000000        0.0000000000000000       
  0.51180000000000003       -8.5079999999999999E-003  0.59994400000000003       
  0.17870000000000000        0.0000000000000000        0.0000000000000000       
    5    3                                                                      
   26.629999999999999        1.4670000000000001E-002   0.0000000000000000       
   5.9480000000000004        9.1763999999999998E-002   0.0000000000000000       
   1.7420000000000000       0.29868299999999998        0.0000000000000000       
  0.55500000000000005        0.0000000000000000        1.0000000000000000       
  0.17249999999999999        0.0000000000000000        0.0000000000000000       
    2    2                                                                      
   1.6539999999999999        1.0000000000000000        0.0000000000000000       
  0.46899999999999997        0.0000000000000000        1.0000000000000000       
    1    1                                                                      
   1.0930000000000000        1.0000000000000000                                 
          7.00000000    1    4    1    1    1    1                              
N #2  -1.390270301014354   0.802336726367047   0.582123227501401                
   10    4                                                                      
   11420.000000000000        5.2300000000000003E-004  -1.1500000000000000E-004  
   1712.0000000000000        4.0450000000000000E-003  -8.9499999999999996E-004  
   389.30000000000001        2.0774999999999998E-002  -4.6239999999999996E-003  
   110.00000000000000        8.0726999999999993E-002  -1.8527999999999999E-002  
   35.570000000000000       0.23307400000000000       -5.7339000000000001E-002  
   12.539999999999999       0.43350100000000003      -0.13207600000000000       
   4.6440000000000001       0.34747200000000000      -0.17251000000000000       
   1.2929999999999999        0.0000000000000000        0.0000000000000000       
  0.51180000000000003       -8.5079999999999999E-003  0.59994400000000003       
  0.17870000000000000        0.0000000000000000        0.0000000000000000       
    5    3                                                                      
   26.629999999999999        1.4670000000000001E-002   0.0000000000000000       
   5.9480000000000004        9.1763999999999998E-002   0.0000000000000000       
   1.7420000000000000       0.29868299999999998        0.0000000000000000       
  0.55500000000000005        0.0000000000000000        1.0000000000000000       
  0.17249999999999999        0.0000000000000000        0.0000000000000000       
    2    2                                                                      
   1.6539999999999999        1.0000000000000000        0.0000000000000000       
  0.46899999999999997        0.0000000000000000        1.0000000000000000       
    1    1                                                                      
   1.0930000000000000        1.0000000000000000                                 
          7.00000000    1    4    1    1    1    1                              
N #3   0.580822770220657   0.802336726367085  -1.377397829863988                
   10    4                                                                      
   11420.000000000000        5.2300000000000003E-004  -1.1500000000000000E-004  
   1712.0000000000000        4.0450000000000000E-003  -8.9499999999999996E-004  
   389.30000000000001        2.0774999999999998E-002  -4.6239999999999996E-003  
   110.00000000000000        8.0726999999999993E-002  -1.8527999999999999E-002  
   35.570000000000000       0.23307400000000000       -5.7339000000000001E-002  
   12.539999999999999       0.43350100000000003      -0.13207600000000000       
   4.6440000000000001       0.34747200000000000      -0.17251000000000000       
   1.2929999999999999        0.0000000000000000        0.0000000000000000       
  0.51180000000000003       -8.5079999999999999E-003  0.59994400000000003       
  0.17870000000000000        0.0000000000000000        0.0000000000000000       
    5    3                                                                      
   26.629999999999999        1.4670000000000001E-002   0.0000000000000000       
   5.9480000000000004        9.1763999999999998E-002   0.0000000000000000       
   1.7420000000000000       0.29868299999999998        0.0000000000000000       
  0.55500000000000005        0.0000000000000000        1.0000000000000000       
  0.17249999999999999        0.0000000000000000        0.0000000000000000       
    2    2                                                                      
   1.6539999999999999        1.0000000000000000        0.0000000000000000       
  0.46899999999999997        0.0000000000000000        1.0000000000000000       
    1    1                                                                      
   1.0930000000000000        1.0000000000000000                                 
          7.00000000    1    4    1    1    1    1                              
N #4  -0.404723765396827  -1.604673452734131  -0.397637301181317                
   10    4                                                                      
   11420.000000000000        5.2300000000000003E-004  -1.1500000000000000E-004  
   1712.0000000000000        4.0450000000000000E-003  -8.9499999999999996E-004  
   389.30000000000001        2.0774999999999998E-002  -4.6239999999999996E-003  
   110.00000000000000        8.0726999999999993E-002  -1.8527999999999999E-002  
   35.570000000000000       0.23307400000000000       -5.7339000000000001E-002  
   12.539999999999999       0.43350100000000003      -0.13207600000000000       
   4.6440000000000001       0.34747200000000000      -0.17251000000000000       
   1.2929999999999999        0.0000000000000000        0.0000000000000000       
  0.51180000000000003       -8.5079999999999999E-003  0.59994400000000003       
  0.17870000000000000        0.0000000000000000        0.0000000000000000       
    5    3                                                                      
   26.629999999999999        1.4670000000000001E-002   0.0000000000000000       
   5.9480000000000004        9.1763999999999998E-002   0.0000000000000000       
   1.7420000000000000       0.29868299999999998        0.0000000000000000       
  0.55500000000000005        0.0000000000000000        1.0000000000000000       
  0.17249999999999999        0.0000000000000000        0.0000000000000000       
    2    2                                                                      
   1.6539999999999999        1.0000000000000000        0.0000000000000000       
  0.46899999999999997        0.0000000000000000        1.0000000000000000       
    1    1                                                                      
   1.0930000000000000        1.0000000000000000                                 
FINISH                                                                          

********************************************************************************
 One- and two-electron integrals over symmetry-adapted AOs are calculated.

  Spherical harmonics are used.
  
  Integrals less than  0.10E-13 are neglected.

   Basis function not normalized: 
   Center (as ordered in MOL file):   1
   Angular Momentum type          : s
   Offset within angular momentum :  1
   <chi|chi>                      :    1.0229080582
   Basis function not normalized: 
   Center (as ordered in MOL file):   1
   Angular Momentum type          : s
   Offset within angular momentum :  2
   <chi|chi>                      :    1.7284955233
   Basis function not normalized: 
   Center (as ordered in MOL file):   1
   Angular Momentum type          : p
   Offset within angular momentum :  1
   <chi|chi>                      :    2.7135114040
   Basis function not normalized: 
   Center (as ordered in MOL file):   2
   Angular Momentum type          : s
   Offset within angular momentum :  1
   <chi|chi>                      :    1.0229080582
   Basis function not normalized: 
   Center (as ordered in MOL file):   2
   Angular Momentum type          : s
   Offset within angular momentum :  2
   <chi|chi>                      :    1.7284955233
   Basis function not normalized: 
   Center (as ordered in MOL file):   2
   Angular Momentum type          : p
   Offset within angular momentum :  1
   <chi|chi>                      :    2.7135114040
   Basis function not normalized: 
   Center (as ordered in MOL file):   3
   Angular Momentum type          : s
   Offset within angular momentum :  1
   <chi|chi>                      :    1.0229080582
   Basis function not normalized: 
   Center (as ordered in MOL file):   3
   Angular Momentum type          : s
   Offset within angular momentum :  2
   <chi|chi>                      :    1.7284955233
   Basis function not normalized: 
   Center (as ordered in MOL file):   3
   Angular Momentum type          : p
   Offset within angular momentum :  1
   <chi|chi>                      :    2.7135114040
   Basis function not normalized: 
   Center (as ordered in MOL file):   4
   Angular Momentum type          : s
   Offset within angular momentum :  1
   <chi|chi>                      :    1.0229080582
   Basis function not normalized: 
   Center (as ordered in MOL file):   4
   Angular Momentum type          : s
   Offset within angular momentum :  2
   <chi|chi>                      :    1.7284955233
   Basis function not normalized: 
   Center (as ordered in MOL file):   4
   Angular Momentum type          : p
   Offset within angular momentum :  1
   <chi|chi>                      :    2.7135114040
  Nuclear repulsion energy :  105.7779183141 a.u.
  required memory for a1 array               5022064  words 
  required memory for a2 array               2070308  words 
 @GETMEM-I,  Allocated      69 MB of main memory.
  @MOLECU-I, One electron integrals (CPU/WALL):        0.30/       0.22 seconds.
  @TWOEL-I,   25275046 integrals of symmetry type  I I I I
  @TWOEL-I, Total number of 2-e integrals   25275046.
  @MOLECU-I, Two electron integrals (CPU/WALL):       61.12/      42.53 seconds.
  @CHECKOUT-I, Total execution time (CPU/WALL):       61.54/      42.87 seconds.
--executable xvmol finished with status     0 in       42.88 seconds (walltime).
 --invoking executable--
/usr/local/cfour/bin/xvmol2ja
 @GETMEM-I,  Allocated     762 MB of main memory.
  @CHECKOUT-I, Total execution time (CPU/WALL):        0.03/       0.03 seconds.
--executable xvmol2ja finished with status     0 in        0.11 seconds (walltime).
 --invoking executable--
/usr/local/cfour/bin/xvscf
  There are  120 functions in the AO basis.

  There are 1 irreducible representations.

       Irrep        # of functions
         1                120


  Parameters for SCF calculation: 
        SCF reference function:  RHF  
  Maximum number of iterations:  150
     Full symmetry point group: C1  
     Computational point group: C1  
        Initial density matrix: MOREAD                 
     SCF convergence tolerance: 10**(- 9)
  DIIS convergence acceleration:  ON
          Latest start for DIIS:   8
                     DIIS order:   6

  Memory information:     802247 words required.
  Fock matrices are constructed from AO integral file.
 @GETMEM-I,  Allocated       6 MB of main memory.
  Initialization and symmetry analysis required      0.004 seconds.

  @INITGES-I, Occupancies from core Hamiltonian:

          Alpha population by irrep:  14
           Beta population by irrep:  14


 total no. of electrons in initial guess :   0.0000000000000000     
  --------------------------------------------------------------------
  Iteration         Total Energy            Largest Density Difference
  --------------------------------------------------------------------
       0           105.777918314137395              0.0000000000D+00
       1          -190.108149770779477              0.2407124286D+01
       2          -194.163092207914048              0.4433101686D+02
       3          -204.107884886866344              0.4373011641D+02
       4          -196.673363393687538              0.2278795539D+02
       5          -200.674088072590536              0.2285480182D+02
       6          -185.557868454619239              0.5739302584D+01
       7          -196.932935303369135              0.5742396071D+01
       8          -183.825099778964926              0.4290201017D+01
       9          -216.291248025482247              0.4280903643D+01
      10          -217.422709222953387              0.1005624423D+01
      11          -217.552427468118964              0.1534767674D+00
      12          -217.584475802633250              0.6463532853D-01
      13          -217.591220403726112              0.3154880537D-01
      14          -217.592231428242343              0.1298941428D-01
      15          -217.592337616854280              0.4563557260D-02
      16          -217.592354201463451              0.1337708827D-02
      17          -217.592359634623307              0.6704010003D-03
      18          -217.592360130796948              0.1663415841D-03
      19          -217.592360221075722              0.6469231527D-04
      20          -217.592360241462274              0.4241905522D-04
      21          -217.592360249293250              0.2356463002D-04
      22          -217.592360249967982              0.7008886828D-05
      23          -217.592360250114979              0.2724480233D-05
      24          -217.592360250133794              0.9894633835D-06
      25          -217.592360250141184              0.7025367690D-06
      26          -217.592360250143798              0.2270789071D-06
      27          -217.592360250139990              0.8377092847D-07
      28          -217.592360250141525              0.4850208063D-07
      29          -217.592360250143685              0.3484451747D-07
      30          -217.592360250142434              0.2076105610D-07
      31          -217.592360250142661              0.8219060044D-08
      32          -217.592360250145049              0.3291263984D-08
      33          -217.592360250143116              0.2063735627D-08

  SCF has converged.

 Density matrix saved to file den.dat
 total electron number:   28.000000000000099     
     E(SCF)=      -217.592360250143457              0.6518788842D-09

  Eigenvector printing suppressed.

 @PUTMOS-I, Writing converged MOs to NEWMOS. 
 @PUTMOS-I, Symmetry   1 Full Blocks 30 Partial Blocksize   0



  ORBITAL EIGENVALUES (ALPHA)  (1H = 27.2113838 eV)

       MO #        E(hartree)               E(eV)           FULLSYM    COMPSYM
       ----   --------------------   --------------------   -------   ---------
    1     1         -15.7508761045        -428.6031351746       A         A (1)
    2     2         -15.7499672929        -428.5784051528       A         A (1)
    3     3         -15.7499496580        -428.5779252817       A         A (1)
    4     4         -15.7499207549        -428.5771387904       A         A (1)
    5     5          -1.6534725302         -44.9932756557       A         A (1)
    6     6          -1.0447062427         -28.4279025497       A         A (1)
    7     7          -1.0413305442         -28.3360451226       A         A (1)
    8     8          -1.0380040775         -28.2455273599       A         A (1)
    9     9          -0.6857070307         -18.6590372013       A         A (1)
   10    10          -0.5700050838         -15.5106271131       A         A (1)
   11    11          -0.5688657144         -15.4796232969       A         A (1)
   12    12          -0.5676643535         -15.4469326030       A         A (1)
   13    13          -0.5337214722         -14.5232998320       A         A (1)
   14    14          -0.5284618855         -14.3801792001       A         A (1)
  +++++++++++++++++++++++++++++++++++++++++++++++++++++++++++++++++++++++++++++
   15    15           0.1922050204           5.2301645831       A         A (1)
   16    16           0.1942060824           5.2846162476       A         A (1)
   17    17           0.1959022484           5.3307712733       A         A (1)
   18    18           0.2341848222           6.3724930827       A         A (1)
   19    19           0.2362874394           6.4297082054       A         A (1)
   20    20           0.2386362787           6.4936233716       A         A (1)
   21    21           0.5072712543          13.8035528012       A         A (1)
   22    22           0.5523791459          15.0310009526       A         A (1)
   23    23           0.5537639870          15.0686843958       A         A (1)
   24    24           0.5551682601          15.1068966104       A         A (1)
   25    25           0.6068774266          16.5139745856       A         A (1)
   26    26           0.6085288505          16.5589121170       A         A (1)
   27    27           0.6489159031          17.6578997067       A         A (1)
   28    28           0.6502224516          17.6934526982       A         A (1)
   29    29           0.6515542653          17.7296931925       A         A (1)
   30    30           0.7414157970          20.1749498227       A         A (1)
   31    31           0.7416250953          20.1806451191       A         A (1)
   32    32           0.7417960753          20.1852977210       A         A (1)
   33    33           0.8013814874          21.8066992396       A         A (1)
   34    34           0.9817717325          26.7153674368       A         A (1)
   35    35           0.9836279685          26.7658781865       A         A (1)
   36    36           0.9854825612          26.8163442198       A         A (1)
   37    37           1.3383847074          36.4192999702       A         A (1)
   38    38           1.3389192889          36.4338466743       A         A (1)
   39    39           1.3393111043          36.4445085117       A         A (1)
   40    40           1.4498731094          39.4530536703       A         A (1)
   41    41           1.4539583419          39.5642185002       A         A (1)
   42    42           1.6278691203          44.2965714410       A         A (1)
   43    43           1.6315473509          44.3966611854       A         A (1)
   44    44           1.6352231557          44.4966849213       A         A (1)
   45    45           1.7567309149          47.8030791938       A         A (1)
   46    46           1.7588442402          47.8605857002       A         A (1)
   47    47           1.7608597890          47.9154315712       A         A (1)
   48    48           1.8989883277          51.6741002538       A         A (1)
   49    49           1.9002986870          51.7097569451       A         A (1)
   50    50           1.9011844823          51.7338606587       A         A (1)
   51    51           1.9020734041          51.7580494516       A         A (1)
   52    52           1.9023243484          51.7648779940       A         A (1)
   53    53           2.0043131187          54.5401335680       A         A (1)
   54    54           2.0299973782          55.2390378109       A         A (1)
   55    55           2.0304812282          55.2522040388       A         A (1)
   56    56           2.0310833630          55.2685889603       A         A (1)
   57    57           3.1145974287          84.7525060767       A         A (1)
   58    58           3.1151201156          84.7667291093       A         A (1)
   59    59           3.1156007484          84.7798077934       A         A (1)
   60    60           3.1793144443          86.5135456274       A         A (1)
   61    61           3.1805428544          86.5469723649       A         A (1)
   62    62           3.1871061333          86.7255682660       A         A (1)
   63    63           3.3709985091          91.7295342863       A         A (1)
   64    64           3.5184417027          95.7416676178       A         A (1)
   65    65           3.5207556932          95.8046345034       A         A (1)
   66    66           3.5230368273          95.8667073184       A         A (1)
   67    67           3.6841247186         100.2501317575       A         A (1)
   68    68           3.6885811099         100.3713963314       A         A (1)
   69    69           3.6927618627         100.4851603990       A         A (1)
   70    70           3.8740950811         105.4194882060       A         A (1)
   71    71           3.9097399975         106.3894357072       A         A (1)
   72    72           3.9134464536         106.4902935076       A         A (1)
   73    73           3.9177196880         106.6065741270       A         A (1)
   74    74           3.9536013387         107.5829634962       A         A (1)
   75    75           3.9573289386         107.6843966475       A         A (1)
   76    76           4.3059050560         117.1696351708       A         A (1)
   77    77           4.3103877559         117.2916156358       A         A (1)
   78    78           4.3150538648         117.4185869179       A         A (1)
   79    79           4.3706267459         118.9308019138       A         A (1)
   80    80           4.3798362147         119.1814043061       A         A (1)
   81    81           4.3883457196         119.4129597094       A         A (1)
   82    82           4.8287888831         131.3980276812       A         A (1)
   83    83           4.8298930439         131.4280734253       A         A (1)
   84    84           4.8330725565         131.5145923636       A         A (1)
   85    85           4.8359059161         131.5916919978       A         A (1)
   86    86           4.8374317387         131.6332117429       A         A (1)
   87    87           4.8403612490         131.7129277718       A         A (1)
   88    88           4.8719947545         132.5737192330       A         A (1)
   89    89           4.8908254295         133.0861279556       A         A (1)
   90    90           4.8978316586         133.2767771455       A         A (1)
   91    91           4.9482896623         134.6498092505       A         A (1)
   92    92           4.9507916746         134.7178924683       A         A (1)
   93    93           4.9525333426         134.7652856661       A         A (1)
   94    94           5.0097814186         136.3230850327       A         A (1)
   95    95           5.0113491104         136.3657440969       A         A (1)
   96    96           5.0131824879         136.4156328369       A         A (1)
   97    97           5.0508157832         137.4396868793       A         A (1)
   98    98           5.0525564375         137.4870524901       A         A (1)
   99    99           5.0564400160         137.5927300348       A         A (1)
  100   100           5.4273937479         147.6868944130       A         A (1)
  101   101           5.4320324405         147.8131196579       A         A (1)
  102   102           5.4366111797         147.9377134892       A         A (1)
  103   103           5.5314445168         150.5182598246       A         A (1)
  104   104           5.5326669067         150.5515227432       A         A (1)
  105   105           5.5987427742         152.3495385365       A         A (1)
  106   106           5.7242912197         155.7658854743       A         A (1)
  107   107           5.7300232912         155.9218630719       A         A (1)
  108   108           5.7358586106         156.0806501891       A         A (1)
  109   109           6.1073619033         166.1897688749       A         A (1)
  110   110           6.1144328008         166.3821777817       A         A (1)
  111   111           6.1252781506         166.6772947567       A         A (1)
  112   112           6.1271301872         166.7276912377       A         A (1)
  113   113           6.1284843460         166.7645397701       A         A (1)
  114   114           6.7937281263         184.8667436115       A         A (1)
  115   115           6.8048998364         185.1707413017       A         A (1)
  116   116           6.8149542905         185.4443369119       A         A (1)
  117   117           7.5212339962         204.6631850668       A         A (1)
  118   118           9.6751758237         263.2749228607       A         A (1)
  119   119           9.7145543957         264.3464682974       A         A (1)
  120   120           9.7567354846         265.4942740979       A         A (1)


  VSCF finished.

  @CHECKOUT-I, Total execution time (CPU/WALL):       33.73/      32.34 seconds.
--executable xvscf finished with status     0 in       32.36 seconds (walltime).
  The final electronic energy is      -217.592360250143457 a.u. 
  This computation required                           76.16 seconds (walltime).
