[Molden Format]
[GTO]
    1 0
 s   7 1.00
    1712.8415853   -0.0053934100
     257.6481268   -0.0402215800
      58.4582458   -0.1793114500
      16.1983679   -0.4637631800
       5.0052601   -0.4417142300
       0.5873186    0.0000000000
       0.1876459    0.0000000000
 s   7 1.00
    1712.8415853    0.0000000000
     257.6481268    0.0000000000
      58.4582458    0.0000000000
      16.1983679    0.0000000000
       5.0052601    0.0000000000
       0.5873186    1.0000000000
       0.1876459    0.0000000000
 s   7 1.00
    1712.8415853    0.0000000000
     257.6481268    0.0000000000
      58.4582458    0.0000000000
      16.1983679    0.0000000000
       5.0052601    0.0000000000
       0.5873186    0.0000000000
       0.1876459    1.0000000000
 p   4 1.00
      13.5714702   -0.0400724000
       2.9257373   -0.2180704500
       0.7992775   -0.5129446600
       0.2195435    0.0000000000
 p   4 1.00
      13.5714702    0.0000000000
       2.9257373    0.0000000000
       0.7992775    0.0000000000
       0.2195435    1.0000000000
 d   1 1.00
       1.0000000    1.0000000000

    2 0
 s   7 1.00
    1712.8415853   -0.0053934100
     257.6481268   -0.0402215800
      58.4582458   -0.1793114500
      16.1983679   -0.4637631800
       5.0052601   -0.4417142300
       0.5873186    0.0000000000
       0.1876459    0.0000000000
 s   7 1.00
    1712.8415853    0.0000000000
     257.6481268    0.0000000000
      58.4582458    0.0000000000
      16.1983679    0.0000000000
       5.0052601    0.0000000000
       0.5873186    1.0000000000
       0.1876459    0.0000000000
 s   7 1.00
    1712.8415853    0.0000000000
     257.6481268    0.0000000000
      58.4582458    0.0000000000
      16.1983679    0.0000000000
       5.0052601    0.0000000000
       0.5873186    0.0000000000
       0.1876459    1.0000000000
 p   4 1.00
      13.5714702   -0.0400724000
       2.9257373   -0.2180704500
       0.7992775   -0.5129446600
       0.2195435    0.0000000000
 p   4 1.00
      13.5714702    0.0000000000
       2.9257373    0.0000000000
       0.7992775    0.0000000000
       0.2195435    1.0000000000
 d   1 1.00
       1.0000000    1.0000000000

    3 0
 s   7 1.00
    1712.8415853   -0.0053934100
     257.6481268   -0.0402215800
      58.4582458   -0.1793114500
      16.1983679   -0.4637631800
       5.0052601   -0.4417142300
       0.5873186    0.0000000000
       0.1876459    0.0000000000
 s   7 1.00
    1712.8415853    0.0000000000
     257.6481268    0.0000000000
      58.4582458    0.0000000000
      16.1983679    0.0000000000
       5.0052601    0.0000000000
       0.5873186    1.0000000000
       0.1876459    0.0000000000
 s   7 1.00
    1712.8415853    0.0000000000
     257.6481268    0.0000000000
      58.4582458    0.0000000000
      16.1983679    0.0000000000
       5.0052601    0.0000000000
       0.5873186    0.0000000000
       0.1876459    1.0000000000
 p   4 1.00
      13.5714702   -0.0400724000
       2.9257373   -0.2180704500
       0.7992775   -0.5129446600
       0.2195435    0.0000000000
 p   4 1.00
      13.5714702    0.0000000000
       2.9257373    0.0000000000
       0.7992775    0.0000000000
       0.2195435    1.0000000000
 d   1 1.00
       1.0000000    1.0000000000

    4 0
 s   7 1.00
    1712.8415853   -0.0053934100
     257.6481268   -0.0402215800
      58.4582458   -0.1793114500
      16.1983679   -0.4637631800
       5.0052601   -0.4417142300
       0.5873186    0.0000000000
       0.1876459    0.0000000000
 s   7 1.00
    1712.8415853    0.0000000000
     257.6481268    0.0000000000
      58.4582458    0.0000000000
      16.1983679    0.0000000000
       5.0052601    0.0000000000
       0.5873186    1.0000000000
       0.1876459    0.0000000000
 s   7 1.00
    1712.8415853    0.0000000000
     257.6481268    0.0000000000
      58.4582458    0.0000000000
      16.1983679    0.0000000000
       5.0052601    0.0000000000
       0.5873186    0.0000000000
       0.1876459    1.0000000000
 p   4 1.00
      13.5714702   -0.0400724000
       2.9257373   -0.2180704500
       0.7992775   -0.5129446600
       0.2195435    0.0000000000
 p   4 1.00
      13.5714702    0.0000000000
       2.9257373    0.0000000000
       0.7992775    0.0000000000
       0.2195435    1.0000000000
 d   1 1.00
       1.0000000    1.0000000000

[TITLE]
*** Dalton interface to Molden, wave function type : HF             8Dec19   16:
[Atoms] AU
N          1     7        -1.2141710420         0.0000000000         1.192911653
N          2     7         1.3902700099        -0.8023365584         0.582123105
N          3     7        -0.5808226486        -0.8023365584        -1.377397541
N          4     7         0.4047236807         1.6046731167        -0.397637217
[5D7F]
[9G]
[MO]
Sym= A
Ene=    0.0000
Spin= Alpha
Occup=  2.0000
    1        0.010443
    2       -0.000754
    3       -0.004715
    4        0.000151
    5        0.000032
    6        0.000002
    7        0.000326
    8        0.000415
    9        0.001873
   10        0.000679
   11       -0.000609
   12        0.000221
   13        0.000065
   14        0.000018
   15        0.009979
   16       -0.000722
   17       -0.004782
   18       -0.000103
   19        0.000103
   20        0.000047
   21        0.000809
   22        0.000256
   23        0.001777
   24        0.000052
   25        0.000804
   26       -0.000204
   27        0.000304
   28       -0.000250
   29        0.949960
   30       -0.031477
   31        0.019110
   32        0.001312
   33        0.001585
   34        0.003343
   35        0.002340
   36        0.002821
   37        0.006092
   38       -0.000216
   39       -0.000017
   40       -0.000042
   41       -0.000256
   42        0.000139
   43        0.282563
   44       -0.009599
   45        0.002033
   46       -0.000227
   47       -0.001085
   48        0.000527
   49        0.000225
   50       -0.000807
   51        0.001940
   52       -0.000266
   53        0.000172
   54        0.000415
   55       -0.000478
   56        0.000447
Sym= A
Ene=    0.0000
Spin= Alpha
Occup=  2.0000
    1       -0.005193
    2        0.000387
    3        0.002548
    4       -0.000024
    5        0.000134
    6        0.000071
    7        0.000784
    8        0.002107
    9       -0.000058
   10        0.000154
   11        0.000435
   12        0.000552
   13       -0.000092
   14       -0.000491
   15       -0.005765
   16        0.000405
   17        0.002568
   18        0.000117
   19        0.000087
   20        0.000036
   21        0.000523
   22        0.002189
   23       -0.000012
   24        0.000309
   25       -0.000016
   26        0.000418
   27        0.000476
   28        0.000511
   29        0.282545
   30       -0.009050
   31        0.009912
   32        0.000396
   33        0.000623
   34        0.000850
   35        0.001306
   36        0.002906
   37        0.001650
   38        0.000140
   39       -0.000253
   40       -0.000577
   41        0.000376
   42       -0.000441
   43       -0.949964
   44        0.031270
   45       -0.021328
   46        0.000900
   47        0.003632
   48       -0.001075
   49        0.001935
   50        0.007263
   51       -0.001396
   52       -0.000283
   53       -0.000049
   54       -0.000071
   55       -0.000242
   56        0.000163
Sym= A
Ene=    0.0000
Spin= Alpha
Occup=  2.0000
    1        0.646750
    2       -0.021545
    3        0.010859
    4        0.001926
    5       -0.000007
    6       -0.001929
    7        0.002197
    8        0.000692
    9       -0.003888
   10       -0.000266
   11       -0.000192
   12        0.000053
   13        0.000380
   14       -0.000265
   15        0.751001
   16       -0.024906
   17        0.013342
   18       -0.002553
   19        0.001477
   20       -0.001061
   21       -0.003609
   22        0.002635
   23       -0.002803
   24       -0.000185
   25       -0.000198
   26        0.000069
   27        0.000316
   28       -0.000196
   29       -0.011376
   30       -0.000080
   31       -0.005711
   32        0.000027
   33        0.000129
   34       -0.000033
   35       -0.000446
   36        0.000500
   37       -0.001809
   38        0.000708
   39        0.000434
   40        0.000376
   41        0.000224
   42        0.000001
   43       -0.011344
   44       -0.000066
   45       -0.005771
   46       -0.000054
   47       -0.000067
   48       -0.000105
   49       -0.000178
   50        0.001188
   51       -0.001552
   52       -0.000259
   53       -0.000187
   54       -0.000720
   55       -0.000488
   56        0.000063
Sym= A
Ene=    0.0000
Spin= Alpha
Occup=  2.0000
    1       -0.750994
    2        0.024544
    3       -0.018485
    4       -0.002256
    5        0.000095
    6        0.002053
    7       -0.005330
    8        0.000632
    9        0.003736
   10       -0.000176
   11       -0.000415
   12        0.000114
   13        0.000464
   14       -0.000221
   15        0.646759
   16       -0.021050
   17        0.016635
   18       -0.002186
   19        0.001201
   20       -0.000751
   21       -0.005318
   22        0.002436
   23       -0.000690
   24        0.000385
   25        0.000082
   26       -0.000027
   27       -0.000491
   28        0.000431
   29        0.001280
   30        0.000002
   31        0.000434
   32       -0.000138
   33        0.000040
   34        0.000048
   35       -0.002127
   36        0.000611
   37        0.000645
   38       -0.000372
   39        0.000653
   40       -0.000308
   41        0.000265
   42        0.000100
   43        0.000549
   44        0.000008
   45        0.000460
   46       -0.000127
   47        0.000050
   48        0.000044
   49       -0.002145
   50        0.000555
   51        0.000618
   52       -0.000141
   53        0.000429
   54        0.000092
   55       -0.000292
   56       -0.000641
Sym= A
Ene=    0.0000
Spin= Alpha
Occup=  2.0000
    1       -0.128384
    2       -0.261974
    3       -0.063521
    4        0.099091
    5       -0.000239
    6       -0.097719
    7       -0.028124
    8       -0.000277
    9        0.028189
   10       -0.005688
   11        0.021019
   12       -0.000253
   13       -0.010499
   14       -0.000218
   15       -0.127520
   16       -0.260298
   17       -0.062471
   18       -0.112904
   19        0.064501
   20       -0.047009
   21        0.031720
   22       -0.018514
   23        0.013811
   24        0.008066
   25       -0.011789
   26        0.006489
   27       -0.009165
   28        0.015823
   29       -0.132326
   30       -0.273432
   31       -0.062656
   32        0.049140
   33        0.065676
   34        0.118708
   35       -0.013369
   36       -0.017203
   37       -0.032378
   38       -0.012326
   39       -0.012014
   40       -0.016908
   41        0.001721
   42       -0.006825
   43       -0.131393
   44       -0.271654
   45       -0.061309
   46       -0.034408
   47       -0.134702
   48        0.036078
   49        0.008933
   50        0.035889
   51       -0.010338
   52        0.010972
   53        0.002706
   54        0.009797
   55        0.017701
   56       -0.009691
Sym= A
Ene=    0.0000
Spin= Alpha
Occup=  2.0000
    1       -0.164300
    2       -0.356094
    3       -0.309545
    4       -0.081449
    5       -0.026777
    6       -0.110946
    7       -0.039184
    8        0.007029
    9        0.077974
   10       -0.021425
   11        0.004233
   12       -0.004775
   13        0.010035
   14        0.001315
   15        0.170426
   16        0.369310
   17        0.320409
   18       -0.058863
   19       -0.103406
   20        0.059316
   21       -0.054332
   22        0.060294
   23       -0.038685
   24        0.002354
   25        0.006316
   26       -0.010990
   27       -0.017317
   28       -0.009192
   29       -0.089535
   30       -0.195907
   31       -0.166906
   32       -0.182282
   33        0.023763
   34        0.077337
   35        0.026678
   36       -0.026520
   37       -0.050236
   38       -0.017803
   39        0.021429
   40       -0.009061
   41        0.010487
   42        0.011591
   43        0.084644
   44        0.185073
   45        0.158189
   46       -0.189681
   47        0.058157
   48       -0.007915
   49        0.032751
   50       -0.051030
   51        0.009081
   52       -0.001469
   53        0.008452
   54       -0.005102
   55       -0.015587
   56       -0.027607
Sym= A
Ene=    0.0000
Spin= Alpha
Occup=  2.0000
    1        0.070994
    2        0.154152
    3        0.135082
    4       -0.028228
    5       -0.188471
    6       -0.019247
    7        0.031024
    8        0.041838
    9       -0.019148
   10       -0.005014
   11       -0.002732
   12       -0.022780
   13        0.001854
   14        0.023136
   15       -0.096830
   16       -0.210211
   17       -0.181442
   18       -0.056496
   19       -0.144397
   20       -0.095854
   21        0.050269
   22        0.011506
   23        0.035477
   24       -0.009157
   25       -0.017768
   26       -0.001973
   27       -0.019209
   28       -0.014486
   29       -0.158514
   30       -0.346666
   31       -0.300662
   32        0.083431
   33       -0.103355
   34        0.053502
   35       -0.045854
   36       -0.017223
   37       -0.071066
   38       -0.011600
   39       -0.014710
   40        0.010423
   41       -0.014685
   42        0.001512
   43        0.185720
   44        0.406902
   45        0.348398
   46        0.074379
   47       -0.018565
   48       -0.099091
   49       -0.039258
   50       -0.078212
   51        0.038547
   52        0.004230
   53       -0.008653
   54       -0.016591
   55        0.006125
   56        0.009976
Sym= A
Ene=    0.0000
Spin= Alpha
Occup=  2.0000
    1       -0.146601
    2       -0.318488
    3       -0.276915
    4        0.118266
    5       -0.069346
    6        0.095307
    7       -0.077723
    8        0.018275
    9        0.023113
   10        0.020638
   11        0.002602
   12       -0.006691
   13       -0.015925
   14        0.010308
   15       -0.123485
   16       -0.268334
   17       -0.230921
   18       -0.089859
   19       -0.008889
   20        0.155588
   21        0.067911
   22       -0.023636
   23       -0.019916
   24        0.016098
   25        0.017912
   26       -0.011183
   27       -0.014821
   28        0.006995
   29        0.153926
   30        0.339997
   31        0.286599
   32       -0.032159
   33       -0.100584
   34        0.075500
   35        0.029432
   36        0.046946
   37        0.038833
   38       -0.017809
   39        0.001349
   40        0.011579
   41       -0.007548
   42        0.009923
   43        0.123898
   44        0.274113
   45        0.228109
   46        0.029859
   47        0.021751
   48        0.137880
   49       -0.017618
   50       -0.050419
   51       -0.011316
   52       -0.011611
   53        0.004807
   54        0.022511
   55       -0.005145
   56        0.007634
Sym= A
Ene=    0.0000
Spin= Alpha
Occup=  2.0000
    1       -0.075341
    2       -0.159417
    3       -0.181966
    4       -0.197068
    5       -0.010048
    6        0.217532
    7        0.079229
    8        0.005859
    9       -0.091170
   10        0.010532
   11       -0.033794
   12       -0.000484
   13        0.015582
   14        0.001480
   15       -0.075340
   16       -0.159545
   17       -0.181953
   18        0.227704
   19       -0.139800
   20        0.116542
   21       -0.091807
   22        0.057985
   23       -0.050487
   24       -0.011706
   25        0.020403
   26       -0.011226
   27        0.013380
   28       -0.025025
   29       -0.063707
   30       -0.131747
   31       -0.157506
   32       -0.103802
   33       -0.123393
   34       -0.261957
   35        0.043579
   36        0.048585
   37        0.112616
   38        0.019761
   39        0.019495
   40        0.027049
   41       -0.002181
   42        0.010341
   43       -0.063413
   44       -0.131147
   45       -0.157245
   46        0.067802
   47        0.282654
   48       -0.094901
   49       -0.027388
   50       -0.118220
   51        0.043974
   52       -0.017559
   53       -0.004924
   54       -0.016136
   55       -0.028080
   56        0.015042
Sym= A
Ene=    0.0000
Spin= Alpha
Occup=  2.0000
    1        0.014938
    2        0.035735
    3        0.026065
    4       -0.075201
    5       -0.224470
    6       -0.131798
    7        0.032826
    8        0.107867
    9        0.066633
   10       -0.013261
   11        0.004901
   12       -0.017139
   13        0.013835
   14        0.023393
   15       -0.011481
   16       -0.027566
   17       -0.019671
   18       -0.071956
   19       -0.233626
   20       -0.062195
   21        0.030752
   22        0.112910
   23        0.028188
   24       -0.000479
   25       -0.010476
   26        0.000293
   27       -0.022882
   28       -0.022568
   29        0.102495
   30        0.250519
   31        0.141232
   32        0.041802
   33        0.012889
   34        0.348267
   35       -0.036959
   36       -0.029631
   37       -0.212917
   38       -0.023626
   39       -0.004606
   40        0.002430
   41       -0.001169
   42        0.004550
   43       -0.106642
   44       -0.260520
   45       -0.148220
   46        0.010410
   47        0.277118
   48       -0.215207
   49       -0.017517
   50       -0.184768
   51        0.118561
   52        0.005910
   53       -0.002820
   54       -0.019651
   55       -0.010041
   56       -0.002344
Sym= A
Ene=    0.0000
Spin= Alpha
Occup=  2.0000
    1        0.107195
    2        0.257393
    3        0.175286
    4        0.106899
    5        0.092493
    6       -0.287997
    7       -0.080107
    8       -0.044350
    9        0.170550
   10       -0.018593
   11        0.007258
   12        0.011032
   13        0.000677
   14       -0.007148
   15       -0.116147
   16       -0.279303
   17       -0.188049
   18        0.208756
   19       -0.123840
   20        0.221244
   21       -0.139081
   22        0.081154
   23       -0.123307
   24        0.008084
   25        0.013973
   26       -0.012213
   27        0.002975
   28       -0.004414
   29       -0.007380
   30       -0.018434
   31       -0.006922
   32       -0.278431
   33        0.090618
   34        0.032520
   35        0.141762
   36       -0.041962
   37       -0.012304
   38       -0.005707
   39        0.019870
   40       -0.013531
   41        0.018851
   42        0.017531
   43        0.015561
   44        0.037938
   45        0.019406
   46       -0.251449
   47        0.031268
   48        0.083294
   49        0.126081
   50       -0.006913
   51       -0.044162
   52        0.001531
   53        0.000835
   54        0.009848
   55       -0.018058
   56       -0.026470
Sym= A
Ene=    0.0000
Spin= Alpha
Occup=  2.0000
    1       -0.026032
    2       -0.063062
    3       -0.036425
    4       -0.021270
    5        0.309854
    6        0.092518
    7        0.012801
    8       -0.178105
    9       -0.063138
   10        0.009604
   11        0.006095
   12        0.028902
   13        0.013253
   14       -0.013780
   15       -0.030276
   16       -0.073541
   17       -0.042105
   18        0.013578
   19       -0.294226
   20       -0.171044
   21       -0.011741
   22        0.175939
   23        0.090954
   24       -0.024591
   25       -0.019770
   26       -0.012086
   27       -0.012890
   28       -0.009809
   29        0.030352
   30        0.074135
   31        0.039463
   32        0.341303
   33       -0.010077
   34       -0.025677
   35       -0.200403
   36        0.008465
   37        0.002396
   38        0.018295
   39       -0.030082
   40        0.000601
   41       -0.005377
   42        0.004320
   43        0.024321
   44        0.058872
   45        0.034048
   46       -0.349719
   47        0.019788
   48        0.034883
   49        0.201256
   50       -0.006783
   51       -0.030312
   52       -0.001477
   53        0.025693
   54       -0.008536
   55       -0.007305
   56       -0.024113
Sym= A
Ene=    0.0000
Spin= Alpha
Occup=  2.0000
    1        0.069485
    2        0.169480
    3        0.093088
    4        0.382615
    5       -0.047061
    6        0.091656
    7       -0.228216
    8        0.020892
    9       -0.029637
   10        0.031530
   11        0.008481
   12        0.000406
   13       -0.018309
   14        0.010899
   15        0.053661
   16        0.131016
   17        0.070177
   18       -0.330667
   19       -0.081418
   20        0.191174
   21        0.198131
   22        0.036966
   23       -0.091433
   24        0.012879
   25        0.014342
   26       -0.021104
   27       -0.028685
   28        0.005844
   29       -0.059593
   30       -0.144876
   31       -0.078670
   32        0.039900
   33       -0.142505
   34       -0.157130
   35       -0.020494
   36        0.075982
   37        0.116869
   38       -0.003413
   39       -0.010889
   40        0.019584
   41        0.006799
   42        0.003086
   43       -0.056472
   44       -0.137413
   45       -0.074120
   46       -0.094444
   47        0.212555
   48        0.025268
   49        0.054299
   50       -0.136405
   51        0.008408
   52       -0.022525
   53        0.003750
   54        0.004984
   55       -0.004056
   56       -0.010000
Sym= A
Ene=    0.0000
Spin= Alpha
Occup=  1.0000
    1        0.021950
    2        0.055478
    3        0.032474
    4       -0.062482
    5        0.128538
    6       -0.157251
    7        0.038754
    8       -0.081675
    9        0.106563
   10       -0.003958
   11        0.008315
   12       -0.006352
   13        0.014539
   14       -0.020643
   15        0.021319
   16        0.054011
   17        0.031168
   18        0.031361
   19        0.041018
   20       -0.203810
   21       -0.017377
   22       -0.029834
   23        0.134114
   24        0.003962
   25       -0.022205
   26       -0.005045
   27        0.013663
   28       -0.005463
   29       -0.031216
   30       -0.079459
   31       -0.046727
   32       -0.057220
   33       -0.409821
   34        0.130614
   35        0.031323
   36        0.224475
   37       -0.063540
   38       -0.022765
   39       -0.001224
   40        0.012798
   41       -0.028104
   42        0.023706
   43       -0.028458
   44       -0.072171
   45       -0.045451
   46        0.105083
   47        0.173914
   48        0.390792
   49       -0.055875
   50       -0.098585
   51       -0.208344
   52       -0.006537
   53        0.017659
   54        0.034747
   55       -0.015006
   56        0.018088
Sym= A
Ene=    0.0000
Spin= Alpha
Occup=  0.0000
    1       -0.001322
    2       -0.003891
    3       -0.010105
    4        0.124234
    5        0.338755
    6        0.114069
    7       -0.153364
    8       -0.414490
    9       -0.137060
   10       -0.005097
   11       -0.003675
   12       -0.004520
   13       -0.005399
   14       -0.000771
   15        0.000398
   16        0.000811
   17       -0.001468
   18       -0.149590
   19       -0.349517
   20       -0.127396
   21        0.183434
   22        0.428493
   23        0.159138
   24        0.005976
   25        0.002760
   26        0.007089
   27        0.002668
   28       -0.002370
   29        0.001664
   30        0.003890
   31        0.014351
   32       -0.338293
   33        0.113714
   34        0.066169
   35        0.406488
   36       -0.137643
   37       -0.075168
   38        0.003793
   39       -0.009168
   40        0.001174
   41        0.000483
   42        0.006008
   43       -0.000895
   44       -0.002542
   45        0.000245
   46        0.366410
   47       -0.109821
   48       -0.070398
   49       -0.440207
   50        0.132378
   51        0.089565
   52       -0.004340
   53        0.010742
   54       -0.002065
   55        0.000309
   56       -0.004626
Sym= A
Ene=    0.0000
Spin= Alpha
Occup= -2.0322
    1       -0.002705
    2       -0.005690
    3       -0.023071
    4        0.304095
    5       -0.188846
    6        0.300960
    7       -0.378835
    8        0.236055
    9       -0.370012
   10       -0.001239
   11        0.001627
   12       -0.005984
   13        0.005873
   14       -0.008306
   15        0.001058
   16        0.001444
   17        0.012523
   18        0.219950
   19        0.090282
   20       -0.403189
   21       -0.273986
   22       -0.109566
   23        0.502695
   24       -0.003370
   25        0.008039
   26        0.003083
   27       -0.007289
   28        0.003716
   29        0.001258
   30        0.003606
   31        0.012468
   32       -0.267140
   33        0.029526
   34        0.085438
   35        0.326285
   36       -0.032644
   37       -0.101257
   38        0.002928
   39       -0.006748
   40        0.002609
   41        0.000645
   42        0.000798
   43        0.000396
   44        0.000679
   45       -0.001778
   46       -0.239115
   47        0.058013
   48       -0.002956
   49        0.291361
   50       -0.067577
   51        0.008253
   52        0.002921
   53       -0.003632
   54        0.001601
   55        0.000411
   56        0.004859
Sym= A
Ene=    0.0000
Spin= Alpha
Occup=  0.0000
    1       -0.000033
    2       -0.000383
    3       -0.001881
    4        0.067457
    5        0.278637
    6        0.064154
    7       -0.089251
    8       -0.361037
    9       -0.083111
   10       -0.004517
   11       -0.003264
   12       -0.005159
   13       -0.004251
   14        0.001240
   15       -0.000794
   16       -0.001885
   17       -0.003467
   18        0.066217
   19        0.219554
   20        0.140851
   21       -0.087462
   22       -0.285284
   23       -0.180421
   24       -0.004279
   25       -0.003676
   26       -0.005504
   27       -0.002355
   28        0.000385
   29       -0.010815
   30       -0.024439
   31       -0.055743
   32       -0.032974
   33       -0.373154
   34        0.252546
   35        0.040696
   36        0.470109
   37       -0.320228
   38        0.001180
   39       -0.001111
   40        0.002862
   41        0.009895
   42       -0.006049
   43        0.011621
   44        0.026925
   45        0.060522
   46       -0.078376
   47       -0.066223
   48       -0.441366
   49        0.098508
   50        0.081210
   51        0.560244
   52        0.005221
   53        0.006901
   54        0.005329
   55       -0.005397
   56        0.004959
Sym= A
Ene=    0.0000
Spin= Alpha
Occup= -0.0000
    1        0.034593
    2        0.087978
    3        0.283000
    4       -0.133519
    5       -0.118886
    6        0.022176
    7        0.329496
    8        0.386715
    9        0.013996
   10        0.021119
   11        0.004255
   12        0.023692
   13        0.007295
   14       -0.009489
   15       -0.014722
   16       -0.036647
   17       -0.122990
   18       -0.105126
   19       -0.101806
   20       -0.034888
   21        0.283290
   22        0.356874
   23        0.107710
   24        0.015850
   25        0.008112
   26        0.018500
   27        0.022178
   28        0.005441
   29        0.119321
   30        0.308321
   31        0.999156
   32       -0.165388
   33       -0.266645
   34       -0.235594
   35        0.386237
   36        0.631012
   37        0.427993
   38        0.020983
   39        0.000864
   40        0.010454
   41        0.013737
   42       -0.007036
   43       -0.138285
   44       -0.355084
   45       -1.162781
   46       -0.154962
   47       -0.418196
   48        0.020864
   49        0.367965
   50        0.872431
   51        0.018526
   52        0.010544
   53        0.003742
   54        0.018883
   55        0.008727
   56        0.005020
Sym= A
Ene=    0.0000
Spin= Alpha
Occup=  0.0000
    1       -0.079034
    2       -0.196924
    3       -0.679272
    4        0.249917
    5       -0.079288
    6       -0.106237
    7       -0.596525
    8        0.251663
    9        0.148499
   10       -0.014603
   11        0.013497
   12        0.001856
   13        0.013708
   14       -0.020151
   15        0.157705
   16        0.396362
   17        1.346248
   18        0.410740
   19       -0.247327
   20        0.150701
   21       -0.866411
   22        0.537024
   23       -0.288199
   24       -0.003562
   25        0.016220
   26       -0.004042
   27        0.006554
   28       -0.011203
   29       -0.022256
   30       -0.055297
   31       -0.192173
   32        0.145464
   33       -0.058548
   34        0.057367
   35       -0.432828
   36        0.228166
   37       -0.127543
   38       -0.005853
   39        0.027513
   40       -0.011263
   41        0.017826
   42       -0.012066
   43       -0.056290
   44       -0.142924
   45       -0.483620
   46        0.096369
   47       -0.198301
   48        0.043066
   49       -0.352769
   50        0.454104
   51       -0.106375
   52       -0.007559
   53        0.018684
   54       -0.007071
   55       -0.000854
   56       -0.028605
Sym= A
Ene=    0.0000
Spin= Alpha
Occup= -0.0000
    1        0.137761
    2        0.348041
    3        1.189783
    4       -0.241771
    5       -0.016538
    6        0.370549
    7        0.459377
    8        0.051985
    9       -0.852543
   10       -0.008508
   11       -0.014739
   12       -0.005325
   13        0.016850
   14       -0.009150
   15        0.032778
   16        0.085095
   17        0.276332
   18        0.023316
   19       -0.053658
   20        0.164688
   21        0.008525
   22        0.113702
   23       -0.499655
   24       -0.009061
   25       -0.024703
   26        0.000519
   27        0.018738
   28       -0.010964
   29       -0.107845
   30       -0.272624
   31       -0.946168
   32        0.036216
   33        0.104557
   34        0.333206
   35       -0.006345
   36       -0.145459
   37       -0.794223
   38        0.012606
   39       -0.019212