[Molden Format]
[Molpro variables]
_NUMVAR=  785.0000000000000    
_AVOGAD= 0.6022136736000000E+24
_BOLTZ= 0.1380658000000000E-22
_CLIGHT=  29979245800.00000    
_EV2006= 0.3674930886769165E-01
_EV= 0.3674932534394180E-01
_ENULL= 0.8854187817000000E-11
_KJOULE= 0.3808798324128737E-03
_KJOULE/MOL= 0.3808798324128737E-03
_CM= 0.4556335267302901E-05
_CM-1= 0.4556335267302901E-05
_DEB2SI= 0.3335641000000000E-29
_AMU2AU=  1822.888390000000    
_KCAL= 0.1593601117815568E-02
_KCAL/MOL= 0.1593601117815568E-02
_KELVIN2006= 0.3166828861084835E-05
_KELVIN= 0.3166814820820034E-05
_JOULE= 0.4359748200000000E-17
_HERTZ2006= 0.1519829850815779E-15
_HERTZ= 0.1519829846011223E-15
_HZ2006= 0.1519829850815779E-15
_HZ= 0.1519829846011223E-15
_JPCAL=  4.184000000000000    
_PLANCK= 0.6626075540000000E-33
_TOA2006= 0.5291772490000000    
_TOA= 0.5291772090000000    
_TOANG2006= 0.5291772490000000    
_TOANG= 0.5291772090000000    
_TORAD= 0.1745329251994330E-01
_TOCM=  219474.6306700000    
_TODEBYE=  2.541580000000000    
_TOEV2006=  27.21139610000000    
_TOE= 0.4803242000000000E-09
_TOEV=  27.21138390000000    
_TOHERTZ2006=  6579683899900000.    
_TOHERTZ=  6579683920700000.    
_TOHZ2006=  6579683899900000.    
_TOHZ=  6579683920700000.    
_TOK2006=  315773.3000000000    
_TOK=  315774.7000000000    
_TOKCAL=  627.5096000000000    
_TOKELVIN2006=  315773.3000000000    
_TOKELVIN=  315774.7000000000    
_TOKJ=  2625.500000000000    
_TOKJOULE=  2625.500000000000    
_TOKG= 0.1660565586000000E-26
_ANG2006=  1.889725988578923    
_ANG=  1.889726131421507    
_ANGSTROM2006=  1.889725988578923    
_ANGSTROM=  1.889726131421507    
_RPAREF=  0.000000000000000    
_RPADISS=  0.000000000000000    
_IGNORE_UNDEF=  2.000000000000000    
_STRICTCHECK=  0.000000000000000    
_SEW_ONEEL=  0.000000000000000    
_CPPDONE=FALSE
_DKROLL_DONE=  0.000000000000000    
_FOCKDONE=TRUE
_GRADONE=FALSE
_HESSDONE=FALSE
_INTDONE=TRUE
_SCFDONE=TRUE
_MODUL_BLOCK=FALSE
_MODUL_CUDA=FALSE
_MODUL_SLATER=FALSE
_MODUL_MRCC=FALSE
_MODUL_NBO6=FALSE
_MODUL_NECI=TRUE
_MODUL_AIMS=TRUE
_MRCC_EXEC=
_FITC_AO_SAVED=FALSE
_FITC_MO_SAVED=FALSE
_SHARED_FS=TRUE
_LSTYP=SEWARD
_INTYP=INTS
_GEOMTYP=ZMAT
_GRADTYP=ALASKA
_DIRECT=FALSE
_DKHO= -1.000000000000000    
_SYNCM=  0.000000000000000    
_BASIS=DEF2-TZVP
_ZORIENT=  1.000000000000000    
_NELEC=  28.00000000000000    
!SPIN=  0.000000000000000    
_QSDSTEP=  0.000000000000000    
_QSDIRC=  0.000000000000000    
_PROGRAM=HF-SCF
_CPUSTEP=  4.460000000000000    
_SYSSTEP= 0.7100000000000000    
_WALLSTEP=  6.170000000000000    
!DFSCF=  0.000000000000000    
!SCSGRD=  0.000000000000000    
_BASINP=  610.0000000000000    
_CPUTOT=  11.25000000000000    
_CPUSORT=  1.700000000000000    
_SYSSORT=  1.340000000000000    
_WALLSORT=  6.250000000000000    
_DFTEXFAC=  1.000000000000000    
_DMX=-0.3237071909950465E-04
_DMY= 0.2997536938539325E-02
_DMZ=-0.3017654617690491E-02
_DMX_SCF=-0.3237071909950465E-04
_DMY_SCF= 0.2997536938539325E-02
_DMZ_SCF=-0.3017654617690491E-02
_EHOMO=-0.5289120659643681    
_ELUMO= 0.1889227481195184    
_ENERGY= -217.5993402702198    
_ENUC=  105.7779401022931    
_GRADEXFAC=  9999.000000000000    
_GRADMETHOD=  1.000000000000000    
_NMRMETHOD=  0.000000000000000    
!GRID_FREEZE= -1.000000000000000    
_ITERATIONS=  9.000000000000000    
_LASTNELEC=  28.00000000000000    
_LASTSPIN=  0.000000000000000    
_LASTSYM=  1.000000000000000    
_MPP_PROG=  0.000000000000000    
_NPROC_MPP=  1.000000000000000    
_NPROC_MPPX=  1.000000000000000    
_NPROC_SMP=  1.000000000000000    
_NUMSTEP=  0.000000000000000    
_ORBITAL=  2100.200000000000    
_PI=  3.141592653589793    
_SEIG_MIN= 0.1429744593672543E-02
_SEWPROP=TRUE
_STATUS=  1.000000000000000    
_SYSTOT=  2.440000000000000    
_VERSION=  2012001.000000000    
_WALLTOT=  18.91000000000000    
_DATE=03-Jun-15
_LASTORB=RHF
_MACHINE=Linux-3.13.0-32-generic/kbob-G41MT-S2(x86_64) 64 bit serial version
_OUTPUT=/home/kbob/git/molden2qmc/test/N4/MOLPRO/RHF/TZVP/N4.xml
_PGROUP=C1
_TIME=17:31:17
_LIBMOL=/usr/local/molpro/molpros_2012_1_Linux_x86_64_i8/lib/
!VIBCNT=  0.000000000000000    
!RGHFCNT=  0.000000000000000    
!SURFREC=  0.000000000000000    
!POLYREC=  0.000000000000000    
!DIPREC=  0.000000000000000    
!VSCFREC=  0.000000000000000    
!VCIREC=  0.000000000000000    
!PVCIREC=  0.000000000000000    
!VMP2REC=  0.000000000000000    
!VMCSCFREC=  0.000000000000000    
!VMRCIREC=  0.000000000000000    
!VIBINFO=  0.000000000000000    
!GAREC=  0.000000000000000    
!SCFORB=  21002.00000000000    
!NEWMOL= -1.000000000000000    
!NEWSYM= -1.000000000000000    
_SLFILES=slscratch
_NGSSTO=  9.000000000000000    
_SIN=SIN
_COS=COS
_TAN=TAN
_ACOS=ACOS
_ASIN=ASIN
_ATAN=ATAN
_COSH=COSH
_SINH=SINH
_TANH=TANH
_ABS=ABS
_MOD=MOD
_ERF=ERF
_REFC=REFC
_ERFC=ERFC
_HYPOT=HYPOT
_J0=J0
_J1=J1
_JN=JN
_GAMMA=GAMMA
_LGAMMA=LGAMMA
_Y0=Y0
_Y1=Y1
_YN=YN
_EXP=EXP
_LOG=LOG
_LOG10=LOG10
_SQRT=SQRT
_INT=INT
_NINT=NINT
_MAX=MAX
_MIN=MIN
_COSMO=  0.000000000000000    
_COSMOIT=  0.000000000000000    
_COSMOES=  0.000000000000000    
_COSMOEDS=  0.000000000000000    
_COSMOEC=  0.000000000000000    
_COSMOEDCORR=  0.000000000000000    
_FEPSI=  1.000000000000000    
_SL_IsMM=  0.000000000000000    
_SL_NSYM=  1.000000000000000    
_SL_System_BitSw=  0.000000000000000    
_SL_Unique_atoms=  0.000000000000000    
_SL_GRAD=  0.000000000000000    
_SL_MAXUPD_Hess=  5.000000000000000    
_SL_N_PRINT_COD=  5.000000000000000    
_SL_PRINT_CODES=  0.000000000000000    
_SL_BasType=  0.000000000000000    
_SL_Energy_Pred=  0.000000000000000    
_SL_New_Coords=  0.000000000000000    
_SL_Total_Nuclea=  0.000000000000000    
_SL_Highest_Mltp=  0.000000000000000    
_SL_Ref_Geom=  0.000000000000000    
_SL_Symmetry_ope=  1.000000000000000    
_SL_agrad=  0.000000000000000    
_SL_GrdMax=  0.000000000000000    
_SL_GrdNorm=  0.000000000000000    
_SL_GrdRMS=  0.000000000000000    
!LATTICE= -1.000000000000000    
!NEWLATTICE=  0.000000000000000    
!LATGRAD_VAR=FALSE
!SEW_LATTICE=  1.000000000000000    
!LOCAL=  0.000000000000000    
!SAVEDOM= -1.000000000000000    
!RESTDOM= -1.000000000000000    
!SAVEDOM_HF= -1.000000000000000    
!RESTDOM_HF= -1.000000000000000    
!HESSREC=  0.000000000000000    
!FREQREC=  0.000000000000000    
!NMODREC=  0.000000000000000    
!GTASKS=  0.000000000000000    
!HTASKS=  0.000000000000000    
!THRCHG= 0.1000000000000000    
!DEBUG= -1.000000000000000    
!CFIT_CPHF=  0.000000000000000    
!RDOMAUX_CPHF=  3.000000000000000    
!THRAO_CPHF= 0.1000000000000000E-09
!THRMO_CPHF= 0.1000000000000000E-08
!THROV_CPHF= 0.1000000000000000E-11
!THRSW_CPHF= 0.1000000000000000E-09
!THRPROD_CPHF= 0.1000000000000000E-08
!THRAOPR_CPHF= 0.1000000000000000E-11
!CFIT_SCFGRD=  0.000000000000000    
!RDOMAUX_SCFGRD=  5.000000000000000    
!THRAO_SCFGRD= 0.1000000000000000E-09
!THRMO_SCFGRD= 0.1000000000000000E-08
!THROV_SCFGRD= 0.1000000000000000E-11
!THRSW_SCFGRD= 0.1000000000000000E-09
!THRPROD_SCFGRD= 0.1000000000000000E-08
!THRAOPR_SCFGRD= 0.1000000000000000E-11
!LOCFIT_SCF=  0.000000000000000    
!LOCFIT_MP2= -1.000000000000000    
_RIDOM=  0.000000000000000    
!CC2_METHOD=  0.000000000000000    
_BASIS2006=FALSE
_SVDDEL= -1.000000000000000    
_SVDDELA= -1.000000000000000    
_SVDDELP= -1.000000000000000    
_SVDDELF= -1.000000000000000    
_SVDDELS= -1.000000000000000    
_SVDDEL_ABS= -1.000000000000000    
_SVDDELA_ABS= -1.000000000000000    
_SVDDELP_ABS= -1.000000000000000    
_SVDDELF_ABS= -1.000000000000000    
_SVDDELS_ABS= -1.000000000000000    
_MAXBASIS=  0.000000000000000    
!OPT_CONICAL=  0.000000000000000    
!CLEARSP_JGRID=  0.000000000000000    
_4EXT_NDISKS=  1.000000000000000    
!ZMP=  0.000000000000000    
_MAXIT_ZMP=  500.0000000000000    
_MAXDIS_ZMP=  100.0000000000000    
_ACCU_ZMP=  14.00000000000000    
_SHIFTA_ZMP= -100.0000000000000    
!EMBEDFLAG=  1.000000000000000    
!EMBED=FALSE
!EMBED_F12=FALSE
!EMBEDNUC=  0.000000000000000    
_EMBEDENERGY=  0.000000000000000    
_KSPACETIME=  0.000000000000000    
_RSPACETIME=  0.000000000000000    
!EMBED_DFC=FALSE
!NUM_VOIDS=  0.000000000000000    
_IBODY=  0.000000000000000    
_EMBE_TOTAL=  0.000000000000000    
_EMBE_HF=  0.000000000000000    
_EMBE_CORR=  0.000000000000000    
!EDFT=  0.000000000000000    
_IFASTLATGRAD=  0.000000000000000    
_SINDEX=  0.000000000000000    
GEOMTYP=XYZ
GX1= 0.5200000000000000    
GY1= 0.5300000000000000    
GZ1= 0.5100000000000000    
GX2=-0.5200000000000000    
GY2=-0.5200000000000000    
GZ2= 0.5200000000000000    
GX3=-0.5200000000000000    
GY3= 0.5200000000000000    
GZ3=-0.5200000000000000    
GX4= 0.5200000000000000    
GY4=-0.5200000000000000    
GZ4=-0.5200000000000000    
[Atoms] Angs
N     1    7         0.5200000000        0.5300000000        0.5100000000
N     2    7        -0.5200000000       -0.5200000000        0.5200000000
N     3    7        -0.5200000000        0.5200000000       -0.5200000000
N     4    7         0.5200000000       -0.5200000000       -0.5200000000
[GTO]
  1 0
 s    6  1.00
  0.1973080065D+05  0.5862640263D-03
  0.2957895874D+04  0.4542882059D-02
  0.6732213360D+03  0.2355841345D-01
  0.1906824949D+03  0.9470919329D-01
  0.6229544190D+02  0.2971978491D+00
  0.2265416118D+02  0.6691624690D+00
 s    2  1.00
  0.8979147743D+01  0.6459668363D+00
  0.3686300237D+01  0.3870057439D+00
 s    1  1.00
  0.8466007680D+00  0.1000000000D+01
 s    1  1.00
  0.3364713377D+00  0.1000000000D+01
 s    1  1.00
  0.1364765367D+00  0.1000000000D+01
 p    4  1.00
  0.4920038051D+02  0.1144882510D-01
  0.1134679054D+02  0.7842233797D-01
  0.3427397241D+01  0.3081809474D+00
  0.1178552513D+01  0.7202719637D+00
 p    1  1.00
  0.4164220497D+00  0.1000000000D+01
 p    1  1.00
  0.1426082601D+00  0.1000000000D+01
 d    1  1.00
  0.1654000000D+01  0.1000000000D+01
 d    1  1.00
  0.4690000000D+00  0.1000000000D+01
 f    1  1.00
  0.1093000000D+01  0.1000000000D+01
  
  2 0
 s    6  1.00
  0.1973080065D+05  0.5862640263D-03
  0.2957895874D+04  0.4542882059D-02
  0.6732213360D+03  0.2355841345D-01
  0.1906824949D+03  0.9470919329D-01
  0.6229544190D+02  0.2971978491D+00
  0.2265416118D+02  0.6691624690D+00
 s    2  1.00
  0.8979147743D+01  0.6459668363D+00
  0.3686300237D+01  0.3870057439D+00
 s    1  1.00
  0.8466007680D+00  0.1000000000D+01
 s    1  1.00
  0.3364713377D+00  0.1000000000D+01
 s    1  1.00
  0.1364765367D+00  0.1000000000D+01
 p    4  1.00
  0.4920038051D+02  0.1144882510D-01
  0.1134679054D+02  0.7842233797D-01
  0.3427397241D+01  0.3081809474D+00
  0.1178552513D+01  0.7202719637D+00
 p    1  1.00
  0.4164220497D+00  0.1000000000D+01
 p    1  1.00
  0.1426082601D+00  0.1000000000D+01
 d    1  1.00
  0.1654000000D+01  0.1000000000D+01
 d    1  1.00
  0.4690000000D+00  0.1000000000D+01
 f    1  1.00
  0.1093000000D+01  0.1000000000D+01
  
  3 0
 s    6  1.00
  0.1973080065D+05  0.5862640263D-03
  0.2957895874D+04  0.4542882059D-02
  0.6732213360D+03  0.2355841345D-01
  0.1906824949D+03  0.9470919329D-01
  0.6229544190D+02  0.2971978491D+00
  0.2265416118D+02  0.6691624690D+00
 s    2  1.00
  0.8979147743D+01  0.6459668363D+00
  0.3686300237D+01  0.3870057439D+00
 s    1  1.00
  0.8466007680D+00  0.1000000000D+01
 s    1  1.00
  0.3364713377D+00  0.1000000000D+01
 s    1  1.00
  0.1364765367D+00  0.1000000000D+01
 p    4  1.00
  0.4920038051D+02  0.1144882510D-01
  0.1134679054D+02  0.7842233797D-01
  0.3427397241D+01  0.3081809474D+00
  0.1178552513D+01  0.7202719637D+00
 p    1  1.00
  0.4164220497D+00  0.1000000000D+01
 p    1  1.00
  0.1426082601D+00  0.1000000000D+01
 d    1  1.00
  0.1654000000D+01  0.1000000000D+01
 d    1  1.00
  0.4690000000D+00  0.1000000000D+01
 f    1  1.00
  0.1093000000D+01  0.1000000000D+01
  
  4 0
 s    6  1.00
  0.1973080065D+05  0.5862640263D-03
  0.2957895874D+04  0.4542882059D-02
  0.6732213360D+03  0.2355841345D-01
  0.1906824949D+03  0.9470919329D-01
  0.6229544190D+02  0.2971978491D+00
  0.2265416118D+02  0.6691624690D+00
 s    2  1.00
  0.8979147743D+01  0.6459668363D+00
  0.3686300237D+01  0.3870057439D+00
 s    1  1.00
  0.8466007680D+00  0.1000000000D+01
 s    1  1.00
  0.3364713377D+00  0.1000000000D+01
 s    1  1.00
  0.1364765367D+00  0.1000000000D+01
 p    4  1.00
  0.4920038051D+02  0.1144882510D-01
  0.1134679054D+02  0.7842233797D-01
  0.3427397241D+01  0.3081809474D+00
  0.1178552513D+01  0.7202719637D+00
 p    1  1.00
  0.4164220497D+00  0.1000000000D+01
 p    1  1.00
  0.1426082601D+00  0.1000000000D+01
 d    1  1.00
  0.1654000000D+01  0.1000000000D+01
 d    1  1.00
  0.4690000000D+00  0.1000000000D+01
 f    1  1.00
  0.1093000000D+01  0.1000000000D+01
 
 
[MO]
 Sym=      1.1
 Ene=     -15.7509
 Spin= Alpha
 Occup=    2.000000
1 0.22761999091096
2 0.31934653511675
3 0.009950068452734
4 -0.002957936336221
5 0.000609950072825
6 -0.001157694637920
7 -0.001161876970266
8 -0.001152749964268
9 0.000450543358793
10 0.000499827370434
11 0.000413749580277
12 -0.000159734816490
13 -0.000163395122637
14 -0.000156791105261
15 0.000000325754469
16 -0.000001712761867
17 0.000001387007398
18 0.000157420621567
19 0.000163275517842
20 0.000160035230594
21 0.000002218400142
22 -0.000020276309188
23 0.000018057909045
24 -0.000172472870191
25 -0.000133327126288
26 -0.000155536386735
27 -0.000035680036216
28 -0.000034139680230
29 -0.000036720515423
30 0.000027523561483
31 0.000024327193677
32 0.000022472018775
33 0.000020346230368
34 0.000021475993758
35 0.000026793722418
36 -0.000008157676322
37 0.21502317429638
38 0.30167650383475
39 0.009274677922503
40 -0.002403689775604
41 0.000551408761814
42 0.001077076339502
43 0.001082107046479
44 -0.001093151633505
45 -0.000300491505611
46 -0.000251275767653
47 0.000280961154649
48 0.000159898496688
49 0.000156804775307
50 -0.000160075751653
51 -0.000003116800040
52 0.000000520941910
53 0.000002595858130
54 0.000151306882270
55 -0.000152285175930
56 -0.000156105720171
57 -0.000009860352827
58 0.000012783013562
59 -0.000002922660735
60 -0.000095431092261
61 0.000111853333990
62 0.000087074874023
63 0.000030098970552
64 0.000030104934204
65 -0.000030365817927
66 -0.000016866400845
67 -0.000020212920980
68 0.000024281596404
69 -0.000023515605679
70 -0.000020177086623
71 0.000016458423442
72 -0.000012298790092
73 0.23265678179149
74 0.32641089260469
75 0.010234801020391
76 -0.003201297062909
77 0.000640929284876
78 0.001197908517566
79 -0.001179005218055
80 0.001192832918570
81 -0.000504313692961
82 0.000555933737475
83 -0.000542287118173
84 0.000160774909753
85 -0.000161445680805
86 0.000163410022123
87 0.000003719876247
88 -0.000004285579530
89 0.000000565703283
90 -0.000163312224958
91 0.000167297653980
92 -0.000160099913420
93 0.000012939206697
94 -0.000009136075265
95 -0.000003803131432
96 0.000175776240546
97 -0.000169182649094
98 0.000195044591807
99 0.000038115996332
100 -0.000037834111810
101 0.000038443119660
102 -0.000025746905503
103 0.000022278382024
104 -0.000023167817160
105 -0.000025391069794
106 0.000028481405501
107 -0.000028409040136
108 -0.000005771583811
109 0.22274743810200
110 0.31251104194168
111 0.009696796721224
112 -0.002753107366586
113 0.000591116270848
114 -0.001130544412133
115 0.001136199444850
116 0.001126140885047
117 0.000402085339118
118 -0.000340719025861
119 -0.000428049374175
120 -0.000160709259689
121 0.000157344084094
122 0.000163047106704
123 -0.000000648033425
124 0.000003716143919
125 -0.000003068110495
126 -0.000161036763293
127 -0.000154007419931
128 0.000158590089974
129 -0.000005557400784
130 0.000022531085859
131 -0.000016973685075
132 0.000115592855547
133 0.000159677594715
134 -0.000128173681108
135 -0.000033719350232
136 0.000033598993054
137 0.000033909789156
138 0.000015601638592
139 -0.000021008642633
140 -0.000027011911921
141 0.000029637616973
142 -0.000024069136834
143 -0.000018482844272
144 -0.000009259408982
 Sym=      2.1
 Ene=     -15.7500
 Spin= Alpha
 Occup=    2.000000
1 -0.19095466652361
2 -0.26788402739209
3 -0.009901500713388
4 0.008167458487074
5 -0.000642682952366
6 0.000990730596992
7 0.001101393523264
8 0.001005068057339
9 -0.003641593945832
10 -0.001094357257107
11 -0.003088349458474
12 -0.000010129186176
13 -0.000076349968841
14 -0.000024904702225
15 0.000060166479652
16 -0.000088923167573
17 0.000028756687921
18 -0.000117550771756
19 0.000004805084829
20 -0.000150374136164
21 0.000490121918928
22 -0.000709316968462
23 0.000219195049534
24 0.000537192539289
25 0.001594384078327
26 0.000255391189174
27 0.000064856285100
28 0.000079114695737
29 0.000071447188435
30 0.000107486336569
31 -0.000093982334424
32 -0.000240618737916
33 -0.000194500173921
34 -0.000012161168187
35 0.000144762275830
36 -0.000061869738042
37 -0.041814926244198
38 -0.058661695606984
39 -0.002140624920311
40 0.001714104992567
41 -0.000139705441680
42 -0.000290804659116
43 -0.000191961471931
44 0.000188876796544
45 -0.001186768951525
46 0.001321498770431
47 -0.001482302488734
48 0.000048464079732
49 -0.000016133189534
50 0.000014518119545
51 -0.000098596123267
52 0.000044991190104
53 0.000053604933163
54 -0.000077967729784
55 0.000068372168350
56 -0.000086639393490
57 -0.000805980682915
58 0.000363809390788
59 0.000442171292127
60 -0.000343324513014
61 0.000253248907172
62 -0.001082883065792
63 -0.000018108828820
64 -0.000012366747187
65 0.000013314253200
66 -0.000002525617621
67 -0.000199562242362
68 0.000184461539242
69 0.000026821160962
70 0.000216153974785
71 -0.000202324484377
72 -0.000011569313669
73 0.37372841264741
74 0.52428656756243
75 0.019502525952456
76 -0.016266982314636
77 0.001309678171513
78 0.002028034880459
79 -0.002033068236638
80 0.002042526310921
81 -0.005643939226115
82 0.004832289042756
83 -0.005080589919044
84 -0.000060902777040
85 0.000077282691730
86 -0.000073159980915
87 -0.000022521710680
88 0.000014092015877
89 0.000008429694803
90 -0.000166434818644
91 0.000157343805355
92 -0.000198713292382
93 -0.000215444836921
94 0.000153952185319
95 0.000061492651602
96 0.001615621533182
97 -0.001744611595948
98 0.001326857173657
99 0.000137139035203
100 -0.000139008083690
101 0.000142425959271
102 -0.000077975308013
103 0.000135089535125
104 -0.000152941250808
105 -0.000106016015036
106 0.000051409379606
107 -0.000038143225207
108 0.000106698705004
109 -0.15485735121164
110 -0.21724339137934
111 -0.008021334152047
112 0.006531497822191
113 -0.000559164947167
114 0.000793874398611
115 -0.000825101210377
116 -0.000897563391266
117 -0.003206574421344
118 0.002492761663284
119 0.000513244630879
120 0.000005905894249
121 0.000010203612145
122 0.000054114948802
123 0.000064905361473
124 0.000023152283406
125 -0.000088057644879
126 -0.000023032740811
127 0.000098548182426
128 -0.000142915046869
129 0.000529748046120
130 0.000196995490295
131 -0.000726743536415
132 -0.001459011299949
133 -0.000401125933321
134 0.000022464231919
135 0.000055183402439
136 -0.000056628256450
137 -0.000059992914237
138 -0.000190093026866
139 0.000245616361394
140 0.000095485068742
141 0.000116056723416
142 -0.000169641582872
143 -0.000014996128101
144 -0.000043029693605
 Sym=      3.1
 Ene=     -15.7499
 Spin= Alpha
 Occup=    2.000000
1 0.33582811630317
2 0.47111785377962
3 0.017493170356238
4 -0.014470342170479
5 0.001189249452258
6 -0.001852619880060
7 -0.001807324078239
8 -0.001815417810532
9 0.003921644514731
10 0.005411198774028
11 0.004493273219317
12 0.000075862033307
13 0.000037593041288
14 0.000061691706664
15 0.000039802299920
16 -0.000044888094139
17 0.000005085794219
18 0.000150753074901
19 0.000204319903309
20 0.000114626625751
21 0.000323988445956
22 -0.000392602377739
23 0.000068613931783
24 -0.001442799206730
25 -0.000983132230985
26 -0.001755403814358
27 -0.000128635211091
28 -0.000116683411916
29 -0.000130190557422
30 0.000154405150136
31 0.000034346785394
32 -0.000025265097788
33 0.000018177095644
34 0.000122200439141
35 0.000199934059643
36 0.000094350745032
37 -0.13880835827608
38 -0.19472821720770
39 -0.007171498534048
40 0.005737314966488
41 -0.000513813359773
42 -0.000750242303633
43 -0.000694590367906
44 0.000809334353856
45 0.001752941513628
46 0.003234445709218
47 -0.000462918707473
48 0.000015976987410
49 -0.000024898759054
50 -0.000044781623362
51 -0.000002675489901
52 0.000082622707612
53 -0.000079947217710
54 0.000020437108115
55 0.000153213381984
56 0.000063427072127
57 -0.000031902654942
58 0.000671813862088
59 -0.000639911207145
60 0.001284113475776
61 0.000195973545463
62 -0.000580840485374
63 -0.000054410808563
64 -0.000046605693942
65 0.000054327501348
66 0.000255058605211
67 0.000135531837031
68 0.000075962529042
69 -0.000182058845217
70 -0.000073003737155
71 -0.000148850520680
72 -0.000038323786562
73 0.048425804984371
74 0.067932853744757
75 0.002551265666562
76 -0.002127020101582
77 0.000203890743559
78 0.000290920314699
79 -0.000195696510117
80 0.000312524209790
81 -0.000105229615922
82 0.002403793736310
83 0.000462079955172
84 -0.000019538058444
85 -0.000039845763277
86 -0.000029295645489
87 0.000033492656463
88 -0.000098323968363
89 0.000064831311901
90 0.000048823543388
91 0.000128242843022
92 0.000013103871114
93 0.000270468544700
94 -0.000799044091389
95 0.000528575546689
96 0.000820553642092
97 0.000702491422747
98 0.000510049644405
99 0.000022426021180
100 -0.000015732144555
101 0.000020818666252
102 -0.000231677377320
103 0.000055433936596
104 0.000159015377318
105 0.000201589712627
106 -0.000034327049802
107 -0.000186946549082
108 0.000013541370862
109 -0.25975637572164
110 -0.36440161434876
111 -0.013476862661550
112 0.011027473986467
113 -0.000915171325768
114 0.001455723388077
115 -0.001371793312253
116 -0.001397916053658
117 -0.002296748197459
118 0.004574585684543
119 0.003637393866967
120 -0.000069978949415
121 0.000012356580358
122 0.000037825052181
123 -0.000068821221931
124 0.000060919422551
125 0.000007901799380
126 0.000132405753403
127 0.000185700498542
128 -0.000047387239122
129 -0.000563203823980
130 0.000514698572836
131 0.000048505251144
132 -0.000976815088387
133 -0.000503474895312
134 0.001704015407333
135 0.000098354638017
136 -0.000089246630915
137 -0.000100605067424
138 -0.000134521852171
139 -0.000043127658260
140 -0.000107870201874
141 0.000002565258266
142 0.000162864578353
143 0.000242846063658
144 -0.000073384007363
 Sym=      4.1
 Ene=     -15.7499
 Spin= Alpha
 Occup=    2.000000
1 -0.028159296528011
2 -0.039501444525260
3 -0.001498083515662
4 0.001244658744555
5 -0.000127401164755
6 0.000110062663174
7 0.000142202124513
8 0.000219062316943
9 -0.001616378764738
10 -0.000813314610635
11 0.001260733257412
12 0.000026334463840
13 0.000008422871991
14 -0.000037543727392
15 0.000068713396190
16 0.000023497948218
17 -0.000092211344408
18 0.000088970241475
19 -0.000040771406163
20 -0.000091142067013
21 0.000564580276473
22 0.000195705145975
23 -0.000760285422449
24 0.001005678078013
25 -0.000116792915069
26 -0.000551980090664
27 0.000012906609760
28 0.000010885995704
29 0.000005941799287
30 -0.000171783038209
31 -0.000232510284927
32 -0.000067343807598
33 0.000154467004139
34 0.000217905189089
35 0.000059372047329
36 -0.000000962810358
37 0.36687694062493
38 0.51467757532158
39 0.019006698297495
40 -0.015505375168107
41 0.001268654228017
42 0.001966530668396
43 0.002004841872863
44 -0.001981402225722
45 -0.005095333559659
46 -0.004300574587446
47 0.005395279659631
48 -0.000055200706871
49 -0.000077245984779
50 0.000052616814453
51 -0.000012931022193
52 0.000033834253661
53 -0.000020903231468
54 0.000195133845838
55 -0.000133355758223
56 -0.000184356492329
57 -0.000075985841823
58 0.000285338360673
59 -0.000209352518850
60 -0.001255450135547
61 0.001837510090220
62 0.001407895704242
63 0.000135986052013
64 0.000134897335307
65 -0.000136223388629
66 -0.000009709789987
67 -0.000070144847533
68 0.000153357685198
69 -0.000172734643788
70 -0.000110838919505
71 0.000029405169061
72 0.000106670550759
73 -0.075491592135329
74 -0.10590292352040
75 -0.003970053289320
76 0.003379785031032
77 -0.000257401859973
78 -0.000477232103210
79 0.000399185810227
80 -0.000362078519729
81 -0.000508790435477
82 -0.001356462010328
83 0.002408919820226
84 0.000055501637507
85 -0.000010400449520
86 -0.000008500432916
87 -0.000091123780103
88 0.000016468763720
89 0.000074655016383
90 0.000115984343339
91 -0.000052094974577
92 -0.000064498632198
93 -0.000743028990993
94 0.000127892187523
95 0.000615136803470
96 0.000379960915228
97 0.000183197543872
98 -0.001179841894609
99 -0.000030574781034
100 0.000027962459375
101 -0.000027962623833
102 -0.000060525969785
103 0.000206245512186
104 -0.000124772320827
105 0.000101546343058
106 -0.000243761088175
107 0.000162288117459
108 -0.000022755005663
109 -0.24653086487637
110 -0.34584685038533
111 -0.012857724518011
112 0.010700907019355
113 -0.000844735920163
114 0.001318953315773
115 -0.001396126455227
116 -0.001305036886634
117 -0.003965433043361
118 0.002103362996283
119 0.004185281888847
120 -0.000036135025914
121 0.000085205169898
122 0.000032817678640
123 0.000031112177434
124 -0.000075874231433
125 0.000044762053999
126 0.000162618550875
127 0.000031712667363
128 -0.000147782413680
129 0.000255864058395
130 -0.000607809862887
131 0.000351945804492
132 -0.000622609490079
133 -0.001740024810435
134 0.000743648950786
135 0.000091326540905
136 -0.000092959405984
137 -0.000092791369445
138 0.000099902740498
139 0.000045163157531
140 0.000205337346825
141 -0.000222430152667
142 0.000079554973026
143 -0.000080844660943
144 -0.000072779790281
 Sym=      5.1
 Ene=      -1.6531
 Spin= Alpha
 Occup=    2.000000
1 -0.045753280427364
2 -0.10559647026935
3 0.14905848941040
4 0.17896278921415
5 0.018323123511276
6 -0.048879371981815
7 -0.048810828851024
8 -0.048923349392141
9 -0.041741626845401
10 -0.041825064987829
11 -0.041649370093138
12 -0.002667039766497
13 -0.002675615802549
14 -0.002656381109086
15 0.000002571072668
16 -0.000000745486498
17 -0.000001825586169
18 0.004508585666960
19 0.004628927965390
20 0.004567714385304
21 0.000002094445545
22 0.000113213160904
23 -0.000115307606449
24 0.010404823123387
25 0.010457762067152
26 0.010430453043405
27 0.002059060761399
28 0.002001411697012
29 0.002119758364033
30 -0.001354841543899
31 -0.001329989048518
32 -0.001435791360542
33 -0.001407678355475
34 -0.001355186514771
35 -0.001408162918169
36 -0.001025326288387
37 -0.045444478643680
38 -0.10488466089223
39 0.14817308992396
40 0.17757637926581
41 0.018422579219140
42 0.048116099968937
43 0.048441063536605
44 -0.049099928594522
45 0.041072705673558
46 0.041286292778638
47 -0.041777865981284
48 0.002661661916410
49 0.002713678231278
50 -0.002703466001265
51 -0.000075562920873
52 0.000000933569016
53 0.000074629351857
54 0.004459612779510
55 -0.004586771364780
56 -0.004606206551414
57 -0.000115742547460
58 0.000002757362631
59 0.000112985184828
60 0.010181173458354
61 -0.010367919668427
62 -0.010405773773260
63 -0.002067386797299
64 -0.002014298083923
65 0.002067530179190
66 0.001361092012106
67 0.001296505311434
68 -0.001381744934255
69 0.001412598436621
70 0.001405959154127
71 -0.001392137881466
72 -0.001034038280061
73 -0.046061397972132
74 -0.10630626259148
75 0.14992806870968
76 0.18038899350506
77 0.018207260571036
78 0.049625775837551
79 -0.048617365194245
80 0.049288982174617
81 0.042424767294951
82 -0.041699908396911
83 0.042202171182796
84 0.002668462764512
85 -0.002626978023188
86 0.002616066536895
87 0.000077794375550
88 -0.000075189323536
89 -0.000002605052014
90 -0.004544625470940
91 0.004675293182104
92 -0.004525835911653
93 0.000121272429665
94 -0.000116516753612
95 -0.000004755676054
96 -0.010495663868149
97 0.010687676520496
98 -0.010457998958020
99 -0.002051908728370
100 0.002052552892804
101 -0.002107585678978
102 0.001351568670075
103 -0.001381566142704
104 0.001469012202167
105 0.001401355770081
106 -0.001372222534729
107 0.001358610705793
108 -0.001012771599595
109 -0.045748953974215
110 -0.10558622658763
111 0.14903902200529
112 0.17896475547477
113 0.018315380513750
114 -0.048864999550448
115 0.049190203780052
116 0.048528654062903
117 -0.041741128796705
118 0.041956873441850
119 0.041520836417892
120 -0.002665580167331
121 0.002716957023680
122 0.002612555695150
123 0.000000399486478
124 0.000078213197419
125 -0.000078612683897
126 -0.004586119664151
127 -0.004547870068678
128 0.004565520992861
129 0.000000486080066
130 0.000121966347713
131 -0.000122452427779
132 -0.010469863695108
133 -0.010394325400226
134 0.010430828487833
135 0.002060438616905
136 -0.002005381921212
137 -0.002114116069181
138 -0.001392070434774
139 0.001375527783243
140 0.001389203478188
141 -0.001372298051745
142 0.001314974394765
143 0.001447180867620
144 -0.001024129675358
 Sym=      6.1
 Ene=      -1.0444
 Spin= Alpha
 Occup=    2.000000
1 0.056242927743713
2 0.13191480853294
3 -0.19426451517027
4 -0.31194859282122
5 -0.096457536452099
6 0.012209801442612
7 -0.076451098880040
8 0.054477489957601
9 0.029443748002131
10 -0.045212457466915
11 0.065314105886162
12 0.003591464185510
13 -0.009474369978151
14 0.009913884268325
15 -0.001403769061372
16 0.006471088529675
17 -0.005067319468303
18 0.004583916817629
19 -0.004954397169618
20 0.001456392526828
21 -0.002330282188205
22 0.010894558070402
23 -0.008564275882197
24 0.001343459656296
25 -0.016029926394894
26 -0.004408848953231
27 -0.000550417869706
28 -0.001195527112689
29 -0.000300225581284
30 -0.002304404004694
31 -0.000090701253440
32 0.001992328629891
33 0.003042867068310
34 0.001694669189190
35 -0.001589533744890
36 -0.000325648455757
37 -0.060189260895617
38 -0.14116420417219
39 0.20795275170138
40 0.33381614250836
41 0.10341833536994
42 0.014494159870920
43 -0.072664424290975
44 -0.046023831103720
45 0.032719466258907
46 -0.040867211738273
47 -0.059865369464413
48 0.004114661904781
49 -0.008769122031264
50 -0.008897508665239
51 0.001623235077793
52 -0.006051154855009
53 0.004427919777216
54 -0.004095669635513
55 -0.004485040727829
56 0.001816656153448
57 0.002644391681819
58 -0.010296386252883
59 0.007651994571064
60 -0.000055303157103
61 -0.015825669508904
62 -0.004279719794055
63 -0.000592887756221