[Molden Format]
[Title]
 Molden file created by orca_2mkl for BaseName=./N4

[Atoms] AU
N    1   7         -1.2141710477         0.0000000000        -1.1929116595 
N    2   7          1.3902700165         0.8023365622        -0.5821231084 
N    3   7         -0.5808226514         0.8023365622         1.3773975481 
N    4   7          0.4047236826        -1.6046731244         0.3976372198 
[GTO]
  1 0
s   8 1.0 
    11420.0000000000         0.4212093071
     1712.0000000000         0.7848615221
      389.3000000000         1.3273975977
      110.0000000000         1.9989872282
       35.5700000000         2.4748758656
       12.5400000000         2.1060076679
        4.6440000000         0.8013747684
        0.5118000000        -0.0037531799
s   8 1.0 
    11420.0000000000        -0.1565041181
     1712.0000000000        -0.2934466844
      389.3000000000        -0.4992401207
      110.0000000000        -0.7752671946
       35.5700000000        -1.0288246585
       12.5400000000        -1.0842399649
        4.6440000000        -0.6722979466
        0.5118000000         0.4472128530
s   1 1.0 
        1.2930000000         0.8641895012
s   1 1.0 
        0.1787000000         0.1958860490
p   3 1.0 
       26.6300000000         3.4325416128
        5.9480000000         3.2969151869
        1.7420000000         2.3120245012
p   1 1.0 
        0.5550000000         0.6828201314
p   1 1.0 
        0.1725000000         0.1584624850
d   1 1.0 
        1.6540000000         6.8771297418
d   1 1.0 
        0.4690000000         0.7577440909
f   1 1.0 
        1.0930000000         6.9645882147

  2 0
s   8 1.0 
    11420.0000000000         0.4212093071
     1712.0000000000         0.7848615221
      389.3000000000         1.3273975977
      110.0000000000         1.9989872282
       35.5700000000         2.4748758656
       12.5400000000         2.1060076679
        4.6440000000         0.8013747684
        0.5118000000        -0.0037531799
s   8 1.0 
    11420.0000000000        -0.1565041181
     1712.0000000000        -0.2934466844
      389.3000000000        -0.4992401207
      110.0000000000        -0.7752671946
       35.5700000000        -1.0288246585
       12.5400000000        -1.0842399649
        4.6440000000        -0.6722979466
        0.5118000000         0.4472128530
s   1 1.0 
        1.2930000000         0.8641895012
s   1 1.0 
        0.1787000000         0.1958860490
p   3 1.0 
       26.6300000000         3.4325416128
        5.9480000000         3.2969151869
        1.7420000000         2.3120245012
p   1 1.0 
        0.5550000000         0.6828201314
p   1 1.0 
        0.1725000000         0.1584624850
d   1 1.0 
        1.6540000000         6.8771297418
d   1 1.0 
        0.4690000000         0.7577440909
f   1 1.0 
        1.0930000000         6.9645882147

  3 0
s   8 1.0 
    11420.0000000000         0.4212093071
     1712.0000000000         0.7848615221
      389.3000000000         1.3273975977
      110.0000000000         1.9989872282
       35.5700000000         2.4748758656
       12.5400000000         2.1060076679
        4.6440000000         0.8013747684
        0.5118000000        -0.0037531799
s   8 1.0 
    11420.0000000000        -0.1565041181
     1712.0000000000        -0.2934466844
      389.3000000000        -0.4992401207
      110.0000000000        -0.7752671946
       35.5700000000        -1.0288246585
       12.5400000000        -1.0842399649
        4.6440000000        -0.6722979466
        0.5118000000         0.4472128530
s   1 1.0 
        1.2930000000         0.8641895012
s   1 1.0 
        0.1787000000         0.1958860490
p   3 1.0 
       26.6300000000         3.4325416128
        5.9480000000         3.2969151869
        1.7420000000         2.3120245012
p   1 1.0 
        0.5550000000         0.6828201314
p   1 1.0 
        0.1725000000         0.1584624850
d   1 1.0 
        1.6540000000         6.8771297418
d   1 1.0 
        0.4690000000         0.7577440909
f   1 1.0 
        1.0930000000         6.9645882147

  4 0
s   8 1.0 
    11420.0000000000         0.4212093071
     1712.0000000000         0.7848615221
      389.3000000000         1.3273975977
      110.0000000000         1.9989872282
       35.5700000000         2.4748758656
       12.5400000000         2.1060076679
        4.6440000000         0.8013747684
        0.5118000000        -0.0037531799
s   8 1.0 
    11420.0000000000        -0.1565041181
     1712.0000000000        -0.2934466844
      389.3000000000        -0.4992401207
      110.0000000000        -0.7752671946
       35.5700000000        -1.0288246585
       12.5400000000        -1.0842399649
        4.6440000000        -0.6722979466
        0.5118000000         0.4472128530
s   1 1.0 
        1.2930000000         0.8641895012
s   1 1.0 
        0.1787000000         0.1958860490
p   3 1.0 
       26.6300000000         3.4325416128
        5.9480000000         3.2969151869
        1.7420000000         2.3120245012
p   1 1.0 
        0.5550000000         0.6828201314
p   1 1.0 
        0.1725000000         0.1584624850
d   1 1.0 
        1.6540000000         6.8771297418
d   1 1.0 
        0.4690000000         0.7577440909
f   1 1.0 
        1.0930000000         6.9645882147

[5D]
[9G]
[MO]
 Sym=     1a
 Ene= -1.57508761802212E+01
 Spin= Alpha
 Occup= 2.000000
  1       0.491873231596
  2       0.000594806394
  3       0.020539697607
  4       0.000781830689
  5       0.001243333573
  6       0.000000144468
  7       0.001241304502
  8      -0.000308121017
  9       0.000002890037
 10      -0.000259486007
 11       0.000207059930
 12       0.000000635353
 13       0.000214130047
 14       0.000072330276
 15       0.000219407855
 16       0.000003550290
 17       0.000104672461
 18      -0.000002564129
 19      -0.000004448581
 20      -0.000063318913
 21       0.000005374907
 22      -0.000039194043
 23      -0.000002866599
 24       0.000008848517
 25      -0.000025129318
 26       0.000001323501
 27      -0.000028648143
 28      -0.000000515899
 29       0.000012173726
 30      -0.000000915340
 31       0.465970899651
 32       0.000639488505
 33       0.019414051835
 34       0.000834456355
 35      -0.001339197622
 36      -0.000778243046
 37       0.000569615913
 38       0.000219203778
 39       0.000145747848
 40      -0.000083260662
 41      -0.000274286581
 42      -0.000154565161
 43       0.000117179733
 44      -0.000076482250
 45      -0.000123664018
 46      -0.000068550214
 47       0.000093700320
 48       0.000160755621
 49       0.000011320139
 50       0.000005418799
 51       0.000011088936
 52      -0.000000406572
 53      -0.000020947260
 54       0.000014139207
 55      -0.000009053504
 56      -0.000002332562
 57      -0.000008949776
 58      -0.000019057470
 59       0.000005453109
 60      -0.000020320134
 61       0.511615875402
 62       0.000559693689
 63       0.021399645702
 64       0.000741154379
 65       0.000622232531
 66      -0.000867085667
 67      -0.001498528379
 68      -0.000186339395
 69       0.000224727910
 70       0.000405658452
 71       0.000087972489
 72      -0.000128911153
 73      -0.000218789438
 74       0.000130452020
 75      -0.000118502440
 76       0.000174565565
 77      -0.000026150075
 78      -0.000071493944
 79      -0.000055560462
 80       0.000062096408
 81      -0.000069696569
 82       0.000004801636
 83       0.000029517508
 84       0.000007202353
 85      -0.000024184766
 86       0.000031514876
 87      -0.000005507009
 88      -0.000022973498
 89      -0.000005303370
 90      -0.000002935906
 91       0.485756858173
 92       0.000605820623
 93       0.020275240708
 94       0.000794998035
 95      -0.000409859662
 96       0.001633973066
 97      -0.000407052007
 98       0.000061919734
 99      -0.000351706514
100       0.000109996661
101      -0.000078336746
102       0.000289325600
103      -0.000067369911
104      -0.000104987572
105       0.000024566590
106      -0.000091258824
107      -0.000181500968
108      -0.000103140814
109       0.000025025078
110      -0.000004867554
111       0.000039058440
112       0.000046760245
113       0.000007216519
114      -0.000015123146
115      -0.000004203602
116       0.000015492266
117      -0.000020360124
118      -0.000008339578
119       0.000012867228
120      -0.000022800973
 Sym=     1a
 Ene= -1.57499676384279E+01
 Spin= Alpha
 Occup= 2.000000
  1       0.283813887589
  2      -0.000551625658
  3       0.012241310116
  4      -0.000654689136
  5       0.000771217819
  6       0.000004180775
  7       0.000772854841
  8      -0.000473942189
  9      -0.000660188126
 10      -0.001501697200
 11      -0.000165449066
 12      -0.000186580720
 13      -0.000454857761
 14      -0.000133858032
 15       0.000073020149
 16      -0.000131915459
 17       0.000062649520
 18      -0.000057340412
 19      -0.000623628963
 20      -0.000355571305
 21      -0.000443311567
 22      -0.000078693334
 23      -0.000202260096
 24      -0.000153005180
 25      -0.000127025638
 26      -0.000135160078
 27      -0.000007893264
 28      -0.000113557879
 29       0.000008147418
 30       0.000035313934
 31       0.152686079836
 32      -0.000271497990
 33       0.006575691984
 34      -0.000318461767
 35      -0.000476161647
 36      -0.000269157814
 37       0.000208625348
 38       0.000722480766
 39      -0.000395816923
 40      -0.000929521838
 41       0.000216226507
 42      -0.000106625144
 43      -0.000273001460
 44      -0.000110601900
 45       0.000129397908
 46      -0.000056405583
 47      -0.000066482856
 48       0.000104410778
 49      -0.000261989886
 50       0.000629409808
 51      -0.000076539496
 52      -0.000370627502
 53       0.000123952327
 54       0.000034907713
 55       0.000158314851
 56       0.000034078203
 57      -0.000199003236
 58       0.000001612178
 59      -0.000102655666
 60       0.000003180667
 61      -0.817081833847
 62       0.001683236018
 63      -0.035326138687
 64       0.002018128579
 65      -0.001077945697
 66       0.001499568558
 67       0.002583610854
 68       0.001339448036
 69      -0.002138478211
 70      -0.003308318135
 71       0.000437881140
 72      -0.000686336826
 73      -0.001070170313
 74      -0.000099365185
 75       0.000097264040
 76      -0.000094435685
 77      -0.000012415338
 78       0.000029492631
 79       0.000665776423
 80      -0.000644061534
 81       0.001041242143
 82      -0.000230121639
 83      -0.000466262453
 84      -0.000003053614
 85       0.000047397550
 86      -0.000128312525
 87       0.000028789015
 88       0.000098567528
 89       0.000082862285
 90      -0.000036486830
 91       0.426879823662
 92      -0.000812694088
 93       0.018423028891
 94      -0.000964114489
 95      -0.000391994563
 96       0.001557508868
 97      -0.000379410283
 98       0.000650326356
 99      -0.002144028518
100      -0.000374002968
101       0.000200436985
102      -0.000669176529
103      -0.000096807741
104      -0.000012472298
105       0.000079094764
106      -0.000193183819
107      -0.000017937922
108       0.000024168999
109       0.000410663504
110       0.000165904358
111      -0.000266176351
112       0.000697220926
113       0.000489967734
114       0.000086210768
115      -0.000033138471
116       0.000098507901
117       0.000085395756
118       0.000102459154
119       0.000152683974
120      -0.000097600126
 Sym=     1a
 Ene= -1.57499491294320E+01
 Spin= Alpha
 Occup= 2.000000
  1      -0.786300410693
  2       0.001575992673
  3      -0.033974367999
  4       0.001884357326
  5      -0.002164076276
  6       0.000002896143
  7      -0.002147920060
  8       0.002892873577
  9      -0.000342753660
 10       0.002692877491
 11       0.000926896875
 12      -0.000097854991
 13       0.000865646905
 14      -0.000075307779
 15      -0.000126922841
 16      -0.000055141523
 17      -0.000074516991
 18      -0.000042329913
 19       0.000227481521
 20       0.001263832460
 21      -0.000185100017
 22       0.000603173812
 23      -0.000151708498
 24      -0.000081380383
 25       0.000098182787
 26      -0.000012221842
 27       0.000117927375
 28      -0.000102538785
 29      -0.000032142642
 30      -0.000006323876
 31       0.224193059381
 32      -0.000410949642
 33       0.009676649881
 34      -0.000487180593
 35      -0.000712235244
 36      -0.000404387797
 37       0.000289822862
 38       0.001432561516
 39       0.000043268690
 40       0.000293297970
 41       0.000435459549
 42       0.000026462107
 43       0.000078325117
 44       0.000012042385
 45      -0.000125147435
 46      -0.000095701128
 47      -0.000141538822
 48       0.000029718672
 49       0.000240294236
 50      -0.000165461525
 51      -0.000181551415
 52      -0.000707204006
 53      -0.000265338026
 54      -0.000084492201
 55      -0.000096353423
 56      -0.000022183090
 57       0.000002932979
 58       0.000084202170
 59      -0.000168353898
 60      -0.000158926942
 61       0.046696728788
 62      -0.000099575761
 63       0.002010565087
 64      -0.000119707671
 65       0.000055142993
 66      -0.000080493377
 67      -0.000147568858
 68       0.000724850494
 69      -0.000255462522
 70       0.000739839182
 71       0.000200860337
 72      -0.000070420498
 73       0.000216383946
 74      -0.000152443833
 75      -0.000135722028
 76      -0.000012121009
 77      -0.000038838698
 78      -0.000082465179
 79      -0.000574618228
 80      -0.000400805285
 81      -0.000107020912
 82      -0.000112359727
 83      -0.000257357804
 84       0.000185993251
 85       0.000090653988
 86       0.000134897689
 87      -0.000003773495
 88       0.000101763774
 89       0.000064714078
 90      -0.000018962582
 91       0.532009798343
 92      -0.001046611605
 93       0.022976498208
 94      -0.001249642055
 95      -0.000493642578
 96       0.001940060954
 97      -0.000487735013
 98       0.001253129723
 99      -0.002230046770
100       0.001052345362
101       0.000378396897
102      -0.000719051741
103       0.000321761559
104      -0.000084767717
105      -0.000094534850
106       0.000011401941
107      -0.000150672764
108       0.000052354606
109       0.000263224247
110      -0.000444393603
111       0.000552591311
112       0.000431416603
113       0.000698404167
114      -0.000102194210
115       0.000034661931
116      -0.000018173957
117      -0.000019336361
118      -0.000168910697
119       0.000142038531
120       0.000035420491
 Sym=     1a
 Ene= -1.57499211760935E+01
 Spin= Alpha
 Occup= 2.000000
  1      -0.117224240760
  2       0.000244934239
  3      -0.005081805400
  4       0.000296356806
  5      -0.000333957779
  6      -0.000008768829
  7      -0.000319055446
  8       0.000934473248
  9       0.000712084638
 10      -0.000075666012
 11       0.000289784616
 12       0.000206586505
 13      -0.000004281778
 14      -0.000105250044
 15      -0.000049000408
 16       0.000061639938
 17       0.000099614390
 18       0.000137486727
 19      -0.000302979106
 20       0.000100143097
 21       0.000227324654
 22       0.000479083653
 23       0.000478387220
 24      -0.000053780906
 25      -0.000119898676
 26      -0.000002910548
 27       0.000080497264
 28       0.000130118425
 29      -0.000127872241
 30      -0.000149869487
 31       0.814751187338
 32      -0.001576017340
 33       0.035169908407
 34      -0.001878256250
 35      -0.002554938996
 36      -0.001485633076
 37       0.001082858498
 38       0.003090432010
 39       0.002152356184
 40      -0.001449236578
 41       0.000987414144
 42       0.000673223582
 43      -0.000456514061
 44      -0.000043141786
 45      -0.000079564755
 46      -0.000016856199
 47       0.000121209935
 48       0.000098959833
 49       0.000502447134
 50       0.000708113619
 51       0.000508947628
 52      -0.000347442676
 53      -0.001001718040
 54       0.000115645027
 55      -0.000009892226
 56      -0.000065433125
 57       0.000007333325
 58      -0.000118298274
 59       0.000042257030
 60      -0.000090105825
 61      -0.151394728573
 62       0.000336016516
 63      -0.006559200482
 64       0.000408191236
 65      -0.000205899104
 66       0.000271419103
 67       0.000484424480
 68       0.000827480477
 69       0.000433061066
 70      -0.000892511893
 71       0.000248721294
 72       0.000106960360
 73      -0.000287893355
 74       0.000030110270
 75      -0.000112861249
 76      -0.000099001889
 77       0.000138671562
 78       0.000069654323
 79       0.000303447035
 80      -0.000571075196
 81      -0.000092027167
 82       0.000442854547
 83       0.000122622997
 84      -0.000016939804
 85       0.000160139518
 86      -0.000016602361
 87      -0.000191671499
 88      -0.000022236939
 89      -0.000109185118
 90       0.000035756402
 91      -0.503268161970
 92       0.001038475100
 93      -0.021757956802
 94       0.001248908217
 95       0.000455015599
 96      -0.001843669425
 97       0.000461112651
 98       0.000159986183
 99       0.002549688221
100      -0.000854882623
101       0.000019698529
102       0.000822498474
103      -0.000267645997
104       0.000019765208
105      -0.000060812901
106      -0.000033987789
107       0.000039495785
108       0.000183865748
109      -0.000452689110
110      -0.000082711095
111      -0.000599312513
112      -0.000782136979
113       0.000147012093
114       0.000120973293
115      -0.000022273364
116      -0.000066535625
117       0.000124156118
118      -0.000071296038
119       0.000099866753
120       0.000111264712
 Sym=     1a
 Ene= -1.65347302642851E+00
 Spin= Alpha
 Occup= 2.000000
  1       0.008528154242
  2      -0.227229795816
  3      -0.053806030921
  4      -0.061128372436
  5      -0.045139308759
  6      -0.000007587086
  7      -0.045478982563
  8      -0.062764179520
  9      -0.000006662103
 10      -0.063001763493
 11      -0.010876953740
 12      -0.000000690251
 13      -0.010854952655
 14      -0.002049615910
 15      -0.006886172840
 16      -0.000045816144
 17      -0.003406877030
 18       0.000042436802
 19      -0.004120795694
 20      -0.014313309436
 21      -0.000063874029
 22      -0.007162284609
 23       0.000061419970
 24       0.000481236096
 25      -0.001858723494
 26      -0.000767232477
 27      -0.001930726950
 28       0.000894634524
 29       0.000781043193
 30       0.000869225859
 31       0.008457422486
 32      -0.225726097430
 33      -0.053483042489
 34      -0.060703157388
 35       0.051654299093
 36       0.029942057750
 37      -0.022096861437
 38       0.071709209231
 39       0.041557598562
 40      -0.030586112013
 41       0.012377576737
 42       0.007164633898
 43      -0.005252641500
 44       0.002554730019
 45       0.003891244233
 46       0.002232585244
 47      -0.002980795694
 48      -0.005216189370
 49       0.005313161493
 50       0.007989879192
 51       0.004588663566
 52      -0.006211965806
 53      -0.010819763411
 54       0.001578799172
 55       0.000143644491
 56      -0.001238204434
 57      -0.000209964992
 58      -0.001380017458
 59      -0.000437406543
 60      -0.001964219597
 61       0.008596525785
 62      -0.228736290589
 63      -0.054126985714
 64      -0.061571289768
 65      -0.021672429652
 66       0.030466659996
 67       0.052533591165
 68      -0.030168723619
 69       0.042288420858
 70       0.072901049093
 71      -0.005247729233
 72       0.007327175307
 73       0.012617115218
 74      -0.003956995749
 75       0.003755227524
 76      -0.005339129987
 77       0.000730172855
 78       0.002201121539
 79      -0.008213812060
 80       0.007912654582
 81      -0.011126838680
 82       0.001525673364
 83       0.004631059946
 84       0.000271855406
 85      -0.001050925693
 86       0.002318807466
 87       0.000374232486
 88      -0.001358520596
 89      -0.001122165596
 90       0.000694862440
 91       0.008525933355
 92      -0.227211823892
 93      -0.053801030605
 94      -0.061132810570
 95       0.015305840788
 96      -0.060401892788
 97       0.014890881316
 98       0.021211010243
 99      -0.083837339878
100       0.020703282775
101       0.003663368306
102      -0.014490316459
103       0.003581637271
104       0.003355306889
105      -0.000764174014
106       0.003016855080
107       0.005711601705
108       0.003101247479
109       0.006953659110
110      -0.001589539068
111       0.006282902413
112       0.011888882057
113       0.006438620325
114      -0.001729551617
115       0.000570864910
116       0.001193922693
117      -0.000552840841
118      -0.000009713196
119       0.001726640290
120      -0.001460321498
 Sym=     1a
 Ene= -1.04470637258102E+00
 Spin= Alpha
 Occup= 2.000000
  1       0.001498881487
  2       0.306413073671
  3       0.077824882765
  4       0.214784466855
  5      -0.052704915352
  6       0.014249704968
  7       0.045955287432
  8      -0.058696588456
  9       0.019292455362
 10       0.075309345259
 11      -0.006345818450
 12       0.004888988470
 13       0.028232364170
 14       0.007976427015
 15      -0.000612114099
 16       0.002483947521
 17      -0.004613335864
 18       0.000187273854
 19       0.018205386075
 20       0.004634741781
 21       0.005606331955
 22      -0.006407364103
 23      -0.000143521648
 24       0.002579200237
 25       0.002471227597
 26       0.001489613911
 27      -0.000895198369
 28       0.000117180573
 29       0.001133470681
 30      -0.000248248964
 31      -0.001605406921
 32      -0.327990172507
 33      -0.083312641182
 34      -0.230069917737
 35      -0.042300933721
 36       0.045252939677
 37      -0.022022774046
 38      -0.041594302362
 39       0.070805607131
 40      -0.036735986014
 41       0.000151434044
 42       0.024552295582
 43      -0.014174952960
 44      -0.000947371907
 45       0.000956493660
 46       0.003715358288
 47       0.007687312267
 48      -0.001625827597
 49       0.001003720332
 50       0.005773804701
 51       0.009935827387
 52       0.013290834122
 53      -0.007969990918
 54       0.001203200130
 55       0.001136813970
 56      -0.000522581303
 57       0.001389708591
 58      -0.001602199991
 59       0.002568755419
 60       0.000798528354
 61       0.000896192596
 62       0.180706258715
 63       0.045875738689
 64       0.126717839838
 65      -0.085534854687
 66      -0.003741136515
 67      -0.029869658459
 68      -0.112557040527
 69      -0.010190694156
 70      -0.049323263558
 71      -0.026450883009
 72      -0.006105749812
 73      -0.018647291843
 74       0.006121369989
 75       0.008934652435
 76       0.002558734674
 77      -0.002928897496
 78       0.003862828514
 79       0.014773601398
 80       0.017064110591
 81       0.008094771315
 82      -0.005923813264
 83       0.006244859862
 84      -0.002797633152
 85      -0.002338350752
 86      -0.002316652013
 87       0.001805475789
 88      -0.001867499348
 89       0.000024966033
 90      -0.000991719050
 91      -0.000817525645
 92      -0.161751746989
 93      -0.041047406264
 94      -0.113682714855
 95      -0.089331832536
 96      -0.017309083455
 97       0.008669242344
 98      -0.119181218796
 99      -0.032770579976
100       0.014087657886
101      -0.029100038365
102      -0.014740191608
103       0.005189846766
104       0.000562609877
105       0.003756795392
106       0.002310968606
107       0.004165498197
108      -0.010598513727
109       0.003321874857
110       0.008080447157
111       0.006552125313
112       0.010902825324
113      -0.020586613609
114      -0.000890978038
115       0.000770868098
116       0.000449442071
117      -0.001493040378
118       0.002228621657
119      -0.003497801627
120      -0.002435954057
 Sym=     1a
 Ene= -1.04133075674143E+00
 Spin= Alpha
 Occup= 2.000000
  1       0.000454382040
  2       0.086777833581
  3       0.022041000011
  4       0.061271387814
  5      -0.001044108353
  6      -0.096727536529
  7      -0.001428968122
  8       0.002235977075
  9      -0.131594154566
 10       0.001836640988
 11       0.003004808329
 12      -0.034141355515
 13       0.003086186322
 14      -0.001034780926
 15       0.000930049590
 16      -0.008947311561
 17      -0.001702773612
 18      -0.009001577361
 19      -0.002085883478
 20       0.004177590216
 21      -0.018612779361
 22      -0.003497909923
 23      -0.018731962687
 24      -0.000927818883
 25       0.000402857229
 26      -0.001849960119
 27      -0.000185996361
 28      -0.004327661955
 29       0.000895043192
 30       0.002448125299
 31      -0.001195834642
 32      -0.233603848391
 33      -0.059375077478
 34      -0.164738113168
 35       0.024591935834
 36      -0.074066959185
 37      -0.029914952754
 38       0.044895642827
 39      -0.094134391101
 40      -0.045519433101
 41       0.019359955322
 42      -0.019902507471
 43      -0.015117544068
 44      -0.003578985957
 45       0.004710785392
 46      -0.002769391063
 47      -0.007212685797
 48       0.005399061267
 49      -0.006206417005
 50       0.012465295536
 51      -0.004922336570
 52      -0.017022380738
 53       0.007279174928
 54       0.000211631880
 55       0.001855054617
 56       0.000535924538
 57      -0.002613577918
 58       0.000666001425
 59      -0.003413218507
 60      -0.000129539407
 61      -0.001240606615
 62      -0.232516935902
 63      -0.059019874972
 64      -0.164324889770
 65      -0.029865867612
 66      -0.074741244096
 67       0.025023869064
 68      -0.045453600212
 69      -0.095008713523
 70       0.045553316294
 71      -0.015008128989
 72      -0.020165965643
 73       0.019634601243
 74      -0.004534949728
 75       0.004680862133
 76       0.005421131756
 77      -0.006792996551
 78      -0.002775702569
 79      -0.011767150923
 80       0.012474099495
 81       0.007354843387
 82      -0.014025822439
 83      -0.004947594591
 84       0.001601880077
 85      -0.002137597741
 86       0.000024363490
 87       0.003606475665
 88       0.000658907565
 89       0.001458919689
 90      -0.000550233759
 91       0.001982691258
 92       0.379347240489
 93       0.096354378715
 94       0.267801476004
 95      -0.032270836575
 96      -0.024038082082
 97      -0.031478297309
 98      -0.049342301657
 99      -0.011045362142
100      -0.048216302130
101      -0.016493008229
102       0.011788298463
103      -0.016143319087
104       0.002047917253
105       0.003082935600
106      -0.003021955316
107       0.003658510070
108      -0.003117727364
109       0.000629674129
110       0.007768639417
111      -0.009470043103
112       0.001332353531
113      -0.009712210473
114       0.001463768572
115      -0.000707876657
116       0.001000225041
117       0.000150064709
118       0.001437812891
119      -0.001259599062
120      -0.001361998213
 Sym=     1a
 Ene= -1.03800420538961E+00
 Spin= Alpha
 Occup= 2.000000
  1      -0.001699289168
  2      -0.305990317240
  3      -0.077726187501
  4      -0.217531813065
  5      -0.043970208237
  6      -0.013168956054
  7       0.054645856266
  8      -0.073247243577
  9      -0.018004700788
 10       0.061135384520
 11      -0.028050119224
 12      -0.004789240158
 13       0.007006900559
 14       0.007935895056
 15       0.000861096290
 16      -0.000123043847
 17      -0.004434706319
 18      -0.002296412424
 19       0.014855653357
 20      -0.004226523833
 21       0.000292210515
 22      -0.012501993889
 23      -0.005413800060
 24       0.002351373867
 25       0.002332768888
 26       0.000091590017
 27      -0.001175492220
 28      -0.000101304981
 29       0.001470405903
 30       0.001418137278
 31      -0.001002886798
 32      -0.182974627946
 33      -0.046499999955
 34      -0.130013363163
 35       0.028295762577
 36       0.003696052989
 37       0.084607942718
 38       0.047705896668
 39       0.010305664509
 40       0.111385400270
 41       0.018634356665
 42       0.006233370962
 43       0.026557214498
 44       0.005553208259
 45      -0.008690207291
 46      -0.003739820202
 47      -0.003644070120
 48      -0.002462023692
 49       0.012600078893
 50      -0.016692165406
 51      -0.006054053222
 52      -0.009658907848
 53      -0.008052393466
 54      -0.001361996018
 55      -0.003186760882
 56      -0.001557054939
 57       0.001806061961
 58       0.001783414664
 59      -0.001082897483
 60      -0.001941218692
 61       0.001824238507
 62       0.328254964563
 63       0.083373689213
 64       0.233195461920
 65       0.021633036444
 66      -0.045034358293
 67       0.044631516749
 68       0.036231250189
 69      -0.070760439596
 70       0.044369877951
 71       0.013936938668
 72      -0.024850334510
 73       0.000600567717
 74      -0.007219140263
 75      -0.000882741191
 76       0.001543640656
 77      -0.003046352220
 78      -0.003706969246
 79      -0.011293842710
 80      -0.005635910524
 81       0.007843685966
 82      -0.007633203205
 83      -0.009928307866
 84       0.002728940154
 85      -0.000428598475
 86       0.000678438269
 87       0.000707253313
 88       0.001551484915
 89       0.001791060530
 90      -0.000688769063
 91       0.000852180654
 92       0.158072148115
 93       0.040187776200
 94       0.112070534419
 95      -0.008579796632
 96       0.016580838776
 97       0.090718519550
 98      -0.013942012924
 99       0.031590110793
100       0.121207286628
101      -0.005168174081
102       0.014308206121
103       0.030181860331
104      -0.003232959911
105      -0.003815806644
106       0.010664199124
107      -0.002549624629
108      -0.002324189976
109      -0.007592634191
110      -0.008211699831
111       0.020917961963
112      -0.008190674256
113      -0.006545568049
114      -0.002406085017
115       0.000653741335
116      -0.002223184390
117      -0.002751789716
118      -0.002265418821
119      -0.001624602153
120       0.001020777261
 Sym=     1a
 Ene= -6.85707213993849E-01
 Spin= Alpha
 Occup= 2.000000
  1      -0.002450769329
  2      -0.127964660829
  3      -0.037899012053
  4      -0.164148438993