[Molden Format]
[Title]
 Molden file created by orca_2mkl for BaseName=./N4

[Atoms] AU
N    1   7          0.9826575891         0.9968305351         0.9684846431 
N    2   7         -0.9826575891        -0.9873819044         0.9873819044 
N    3   7         -0.9826575891         0.9779332738        -0.9779332738 
N    4   7          0.9826575891        -0.9873819044        -0.9779332738 
[GTO]
  1 0
s   5 1.0 
     1712.8415853000        -1.0337585405
      257.6481267700        -1.8620740805
       58.4582458530        -2.7290401880
       16.1983679050        -2.6956734544
        5.0052600809        -1.0640914367
s   1 1.0 
        0.5873185657         0.4781513534
s   1 1.0 
        0.1876459225         0.2031956662
p   3 1.0 
       13.5714702330        -2.1850243557
        2.9257372874        -1.7466999024
        0.7992775075        -0.8114650516
p   1 1.0 
        0.2195434803         0.2142105067
d   1 1.0 
        1.0000000000         2.8508218814

  2 0
s   5 1.0 
     1712.8415853000        -1.0337585405
      257.6481267700        -1.8620740805
       58.4582458530        -2.7290401880
       16.1983679050        -2.6956734544
        5.0052600809        -1.0640914367
s   1 1.0 
        0.5873185657         0.4781513534
s   1 1.0 
        0.1876459225         0.2031956662
p   3 1.0 
       13.5714702330        -2.1850243557
        2.9257372874        -1.7466999024
        0.7992775075        -0.8114650516
p   1 1.0 
        0.2195434803         0.2142105067
d   1 1.0 
        1.0000000000         2.8508218814

  3 0
s   5 1.0 
     1712.8415853000        -1.0337585405
      257.6481267700        -1.8620740805
       58.4582458530        -2.7290401880
       16.1983679050        -2.6956734544
        5.0052600809        -1.0640914367
s   1 1.0 
        0.5873185657         0.4781513534
s   1 1.0 
        0.1876459225         0.2031956662
p   3 1.0 
       13.5714702330        -2.1850243557
        2.9257372874        -1.7466999024
        0.7992775075        -0.8114650516
p   1 1.0 
        0.2195434803         0.2142105067
d   1 1.0 
        1.0000000000         2.8508218814

  4 0
s   5 1.0 
     1712.8415853000        -1.0337585405
      257.6481267700        -1.8620740805
       58.4582458530        -2.7290401880
       16.1983679050        -2.6956734544
        5.0052600809        -1.0640914367
s   1 1.0 
        0.5873185657         0.4781513534
s   1 1.0 
        0.1876459225         0.2031956662
p   3 1.0 
       13.5714702330        -2.1850243557
        2.9257372874        -1.7466999024
        0.7992775075        -0.8114650516
p   1 1.0 
        0.2195434803         0.2142105067
d   1 1.0 
        1.0000000000         2.8508218814

[5D]
[9G]
[MO]
 Sym=     1a
 Ene= -1.57527328358929E+01
 Spin= Alpha
 Occup= 2.000000
  1       0.502169995962
  2      -0.017093496045
  3       0.004755250129
  4      -0.001183030845
  5      -0.001196041455
  6      -0.001170891751
  7      -0.001375545710
  8      -0.001377191361
  9      -0.001392328824
 10      -0.000017635889
 11       0.000418320733
 12       0.000423241486
 13      -0.000008561221
 14       0.000432845722
 15       0.506779632946
 16      -0.017207417699
 17       0.004732737291
 18       0.001186316104
 19       0.001191949638
 20      -0.001197700373
 21       0.001338481338
 22       0.001338519235
 23      -0.001388787279
 24      -0.000005394055
 25      -0.000427267818
 26      -0.000418148300
 27      -0.000000655696
 28       0.000421915209
 29       0.482561740906
 30      -0.016488461597
 31       0.004410506607
 32       0.001145672409
 33      -0.001137497964
 34       0.001138987057
 35       0.001349060975
 36      -0.001332274469
 37       0.001330652571
 38       0.000003415265
 39       0.000443555366
 40      -0.000437201096
 41       0.000001498356
 42      -0.000422834470
 43       0.490734632716
 44      -0.016718921024
 45       0.004472102245
 46      -0.001158494352
 47       0.001163462042
 48       0.001151176793
 49      -0.001337752478
 50       0.001330210451
 51       0.001311753518
 52       0.000003006503
 53      -0.000440313586
 54       0.000433452622
 55      -0.000002100748
 56      -0.000416843424
 Sym=     1a
 Ene= -1.57520706444619E+01
 Spin= Alpha
 Occup= 2.000000
  1       0.596715310290
  2      -0.019611854880
  3       0.015013674703
  4      -0.001358395377
  5      -0.001374988852
  6      -0.001236947544
  7      -0.003567147080
  8      -0.003758583596
  9      -0.001597647070
 10       0.000364506175
 11      -0.000038202824
 12      -0.000071625408
 13       0.000024410890
 14      -0.000605256080
 15      -0.777901323806
 16       0.025518351040
 17      -0.019642936727
 18      -0.001729016942
 19      -0.001743611176
 20       0.001693911287
 21      -0.004178815708
 22      -0.004357505336
 23       0.003141668821
 24      -0.000199319122
 25      -0.000209615259
 26      -0.000251509939
 27      -0.000026002529
 28       0.000526357943
 29       0.128923492182
 30      -0.004250290237
 31       0.003208907679
 32       0.000168676422
 33      -0.000386420529
 34       0.000298179472
 35      -0.001082504282
 36      -0.002143767069
 37       0.000884374531
 38      -0.000070053783
 39       0.000378335431
 40       0.000540662902
 41       0.000526427481
 42      -0.000014790070
 43       0.065934228850
 44      -0.002163544920
 45       0.001557383386
 46      -0.000241962809
 47       0.000029970172
 48       0.000170498432
 49      -0.001740625602
 50      -0.001486138154
 51       0.000660533498
 52      -0.000102294247
 53       0.000524592686
 54       0.000378144765
 55      -0.000522731441
 56      -0.000071603247
 Sym=     1a
 Ene= -1.57520461491657E+01
 Spin= Alpha
 Occup= 2.000000
  1       0.490882218795
  2      -0.016109164293
  3       0.012472215377
  4      -0.001001555623
  5      -0.001126958700
  6      -0.001163133234
  7      -0.000985071888
  8      -0.002859888241
  9      -0.003527456246
 10      -0.000307026603
 11      -0.000123921913
 12      -0.000635131418
 13       0.000297409187
 14       0.000098160041
 15       0.306032446515
 16      -0.010019583951
 17       0.007743710578
 18       0.000696793300
 19       0.000575347824
 20      -0.000776293463
 21       0.001748311158
 22      -0.000117944638
 23      -0.002903780203
 24      -0.000391024729
 25       0.000592391070
 26       0.000073471446
 27      -0.000300904212
 28       0.000249699210
 29      -0.014027880574
 30       0.000456557339
 31      -0.000218786949
 32       0.000007638277
 33      -0.000046085392
 34      -0.000161981639
 35       0.000664224526
 36      -0.001127041322
 37      -0.001890194541
 38       0.000526775650
 39       0.000336412348
 40      -0.000200108529
 41       0.000076090378
 42       0.000530943630
 43      -0.804572999452
 44       0.026425605182
 45      -0.020201775575
 46       0.001759950814
 47      -0.001793521520
 48      -0.001832618170
 49       0.003459871265
 50      -0.003916487597
 51      -0.004606532961
 52       0.000176660580
 53      -0.000365230794
 54       0.000487264111
 55      -0.000071785301
 56      -0.000155878758
 Sym=     1a
 Ene= -1.57520270171914E+01
 Spin= Alpha
 Occup= 2.000000
  1      -0.364799218313
  2       0.011957955088
  3      -0.009312284052
  4       0.000894965826
  5       0.000704325290
  6       0.000867896470
  7       0.002847825467
  8       0.000138387494
  9       0.002498052713
 10       0.000198826569
 11       0.000667200200
 12      -0.000109941659
 13       0.000452962791
 14      -0.000023956859
 15      -0.163377322671
 16       0.005347262592
 17      -0.004241665421
 18      -0.000242248892
 19      -0.000421918292
 20       0.000430516503
 21       0.001021746084
 22      -0.001686028888
 23       0.001816963583
 24       0.000278688817
 25       0.000161941464
 26      -0.000596508115
 27      -0.000432831354
 28      -0.000198081467
 29       0.855913086713
 30      -0.028147453947
 31       0.021560124419
 32       0.001953329280
 33      -0.001885618083
 34       0.001926905005
 35       0.004542068144
 36      -0.004029241470
 37       0.004201361631
 38       0.000008542251
 39      -0.000437579720
 40       0.000277744802
 41      -0.000091303151
 42       0.000367917928
 43      -0.299636978601
 44       0.009837505956
 45      -0.007733956448
 46       0.000740928677
 47      -0.000710820486
 48      -0.000551133312
 49       0.002629074879
 50      -0.002161036795
 51       0.000205278182
 52      -0.000484538761
 53       0.000043643168
 54      -0.000176699838
 55       0.000079031413
 56      -0.000626492531
 Sym=     1a
 Ene= -1.66780476459512E+00
 Spin= Alpha
 Occup= 2.000000
  1       0.130043126391
  2       0.262056366906
  3       0.070310285652
  4       0.078555721059
  5       0.078620724407
  6       0.078461229271
  7      -0.021833509217
  8      -0.022034616672
  9      -0.021635816498
 10      -0.000183654350
 11       0.013337432998
 12       0.013386507548
 13      -0.000104448621
 14       0.013439863376
 15       0.129180216929
 16       0.260399778416
 17       0.069257776129
 18      -0.077406163597
 19      -0.077906428133
 20       0.078820333165
 21       0.021443273948
 22       0.021443284105
 23      -0.021655882172
 24       0.000114492747
 25      -0.013385520669
 26      -0.013423744345
 27      -0.000102247420
 28       0.013219811396
 29       0.130905743648
 30       0.263708895142
 31       0.071429481421
 32      -0.079690970758
 33       0.078243544782
 34      -0.079172969583
 35       0.022253684368
 36      -0.022024923678
 37       0.022248094961
 38      -0.000033499910
 39       0.013558875046
 40      -0.013350316565
 41       0.000153361280
 42      -0.013387920798
 43       0.130031963383
 44       0.262033613078
 45       0.070330965833
 46       0.078540493448
 47      -0.079041545517
 48      -0.078023555765
 49      -0.021840601835
 50       0.021845460517
 51       0.021839934997
 52      -0.000180106579
 53      -0.013350335880
 54       0.013386347447
 55      -0.000103820564
 56      -0.013426192191
 Sym=     1a
 Ene= -1.04590856702395E+00
 Spin= Alpha
 Occup= 2.000000
  1       0.159545247071
  2       0.338203397215
  3       0.307851611336
  4       0.029924524849
  5      -0.102396985868
  6       0.094465043226
  7      -0.042950001525
  8      -0.008859070267
  9      -0.059967074663
 10       0.012958770670
 11       0.014161560814
 12       0.000035525695
 13       0.011435867523
 14      -0.007102099891
 15      -0.171029096474
 16      -0.362431488779
 17      -0.329760932362
 18       0.034341229402
 19      -0.095788586736
 20      -0.082498869639
 21      -0.046534462958
 22      -0.012898933488
 23       0.059909958040
 24      -0.011380259546
 25       0.013531965384
 26      -0.000550970469
 27      -0.011250228143
 28       0.005738515605
 29       0.093530678343
 30       0.198282071916
 31       0.180943410710
 32      -0.107924467442
 33      -0.139422581349
 34      -0.041943371071
 35       0.049080224759
 36       0.015628683670
 37       0.031687977176
 38       0.005592217982
 39       0.016640157052
 40       0.010141449509
 41       0.021341627036
 42       0.003135940723
 43      -0.083400188566
 44      -0.176694183612
 45      -0.161629863676
 46      -0.100693416412
 47      -0.142961825813
 48       0.053129622187
 49       0.045006250340
 50       0.018489967425
 51      -0.032499313298
 52      -0.007458380462
 53       0.017011368419
 54       0.009228341794
 55      -0.021216363746
 56      -0.004078040803
 Sym=     1a
 Ene= -1.04246955813042E+00
 Spin= Alpha
 Occup= 2.000000
  1       0.043940762109
  2       0.093151747530
  3       0.085548739197
  4      -0.156330660342
  5       0.080797432778
  6       0.080152983046
  7       0.031303938516
  8      -0.030879922115
  9      -0.031157257740
 10       0.011710159803
 11      -0.007815665015
 12       0.017620187862
 13      -0.020555060112
 14      -0.008020214458
 15      -0.121144757986
 16      -0.256825277949
 17      -0.234947666273
 18      -0.115325342922
 19       0.120427959540
 20      -0.007435959668
 21       0.003504746592
 22      -0.058412978429
 23       0.029117193643
 24      -0.000408919991
 25      -0.010913967441
 26       0.014591331473
 27       0.020344402843
 28      -0.001251711620
 29      -0.120553915697
 30      -0.255550775682
 31      -0.235527237660
 32      -0.115739668831
 33      -0.006471146495
 34       0.122150527520
 35       0.003218980047
 36       0.028621301075
 37      -0.059511911795
 38      -0.017663095813
 39      -0.001426953433
 40       0.014506351180
 41       0.010668481188
 42      -0.011069702913
 43       0.197759564741
 44       0.419228317144
 45       0.384935833687
 46      -0.074707732105
 47      -0.048811312031
 48      -0.046700599210
 49      -0.024592539339
 50       0.057312971039
 51       0.056323079856
 52       0.005827040480
 53       0.001774668876
 54       0.011474786420
 55      -0.010763638091
 56       0.001686241813
 Sym=     1a
 Ene= -1.03908109410605E+00
 Spin= Alpha
 Occup= 2.000000
  1      -0.159063286723
  2      -0.337219846970
  3      -0.312272334636
  4      -0.024808493303
  5      -0.091892377608
  6       0.105159322309
  7       0.042736978091
  8       0.060360232881
  9       0.007783444791
 10       0.016394277358
 11       0.007489143838
 12       0.000427622255
 13       0.005882287633
 14      -0.013732285634
 15      -0.094604776069
 16      -0.200547300989
 17      -0.185234232684
 18       0.106231568444
 19       0.040491143442
 20       0.137429820623
 21      -0.049366469662
 22      -0.032095118885
 23      -0.015141119064
 24       0.021186735932
 25      -0.002511020664
 26      -0.009704646609
 27      -0.005567543556
 28      -0.016462142315
 29       0.170920497357
 30       0.362471197039
 31       0.335815028239
 32      -0.032754012653
 33       0.081612274967
 34       0.099414751054
 35       0.047635922581
 36      -0.059778583454
 37       0.012219521767
 38      -0.015616354366
 39      -0.006050068383
 40       0.000769503887
 41      -0.004163056026
 42      -0.013436183159
 43       0.081384869614
 44       0.172632007003
 45       0.159064447939
 46       0.101084538389
 47      -0.051664637299
 48       0.146218251859
 49      -0.044966798127
 50       0.031936831375
 51      -0.020760955876
 52      -0.022095160770
 53       0.004373651588
 54      -0.009679136956
 55       0.004243905729
 56      -0.017031451967
 Sym=     1a
 Ene= -6.94095048342300E-01
 Spin= Alpha
 Occup= 2.000000
  1      -0.064209787402
  2      -0.128755462547
  3      -0.184245912871
  4       0.167069096108
  5       0.169439817106
  6       0.164708132207
  7      -0.080981362397
  8      -0.082462906238
  9      -0.079514883266
 10      -0.000469047260
 11       0.020372838608
 12       0.020774430424
 13      -0.000274709807
 14       0.021180200715
 15      -0.064196802724
 16      -0.128784663388
 17      -0.184643064078
 18      -0.165320509905
 19      -0.166201440466
 20       0.166144117940
 21       0.080035341337
 22       0.080272670627
 23      -0.080102734943
 24       0.000087302905
 25      -0.020609379558
 26      -0.020724277050
 27      -0.000096161813
 28       0.020732055906
 29      -0.064207646141
 30      -0.128689957281
 31      -0.183767713628
 32      -0.168841975976
 33       0.167970904749
 34      -0.167979931757
 35       0.081970092435
 36      -0.081870251251
 37       0.081739534295
 38      -0.000033193907
 39       0.020834306365
 40      -0.020834627302
 41       0.000132005451
 42      -0.020949386175
 43      -0.064207835499
 44      -0.128747750005
 45      -0.184236177753
 46       0.167045356879
 47      -0.167945511884
 48      -0.166202535545
 49      -0.080971738577
 50       0.081225891070
 51       0.080757953879
 52      -0.000163792953
 53      -0.020663350323
 54       0.020781549658
 55      -0.000098121672
 56      -0.020892959471
 Sym=     1a
 Ene= -5.78090769895719E-01
 Spin= Alpha
 Occup= 2.000000
  1       0.072107844360
  2       0.167317843647
  3       0.125733747279
  4      -0.041593874114
  5      -0.031753817768
  6      -0.295837516142
  7       0.048417556594
  8       0.043300074758
  9       0.185623149311
 10      -0.023969701905
 11      -0.008171836762
 12      -0.007409764646
 13      -0.000381558994
 14       0.004081660215
 15      -0.118339844902
 16      -0.274893352417
 17      -0.206073259479
 18      -0.165634525531
 19      -0.169543483499
 20       0.260847709051
 21       0.131515454320
 22       0.134612106414
 23      -0.183445606177
 24       0.008398338617
 25      -0.007156294105
 26      -0.007713100374
 27       0.000058022291
 28       0.003296332792
 29       0.023755284605
 30       0.055040649257
 31       0.041600657939
 32       0.245990629268
 33       0.110654578399
 34      -0.015882335452
 35      -0.141628788470
 36      -0.051201477374
 37       0.000412880659
 38       0.007847181029
 39      -0.008018162536
 40      -0.008323056009
 41      -0.028293221348
 42       0.003472347645
 43       0.021959672787
 44       0.050875770563
 45       0.038781531766
 46       0.105536436594
 47       0.234710636387
 48      -0.022415036401
 49      -0.048892945209
 50      -0.133680775045
 51       0.004499881873
 52       0.008067617618
 53      -0.007705386123
 54      -0.006956029410
 55       0.027903416633
 56       0.003594366288
 Sym=     1a
 Ene= -5.76975564027297E-01
 Spin= Alpha
 Occup= 2.000000
  1      -0.070517801952
  2      -0.163819886360
  3      -0.122157741845
  4       0.294425831265
  5       0.028706301816
  6       0.033260656030
  7      -0.184943676649
  8      -0.041392181498
  9      -0.043430729015
 10      -0.012516338111
 11       0.007891608999
 12      -0.004335291372
 13       0.020861662237
 14       0.007090820548
 15      -0.026101036024
 16      -0.060631911789
 17      -0.045542296520
 18       0.013049892321
 19      -0.236857369782
 20      -0.095580728375
 21       0.002583768445
 22       0.136374477537
 23       0.042047280590
 24      -0.019976440169
 25       0.006974240333
 26      -0.003864425766
 27      -0.020450695426
 28       0.006983893836
 29      -0.021887122930
 30      -0.050847169230
 31      -0.037560705958
 32       0.022593307625
 33      -0.113374290496
 34      -0.250187911068
 35      -0.004249785167
 36       0.053515436461
 37       0.144412030796
 38       0.028768482859
 39       0.008418115092
 40      -0.003670029788
 41       0.006697832860
 42       0.008727885131
 43       0.118496491949
 44       0.275309710524
 45       0.205156749200
 46      -0.256072748196
 47       0.181906337189
 48       0.160625785800
 49       0.181595188924
 50      -0.142525151073
 51      -0.129119669523
 52       0.004827808678
 53       0.006377270728
 54      -0.003480245079
 55      -0.006343470451
 56       0.008045998974
 Sym=     1a
 Ene= -5.75796351185034E-01
 Spin= Alpha
 Occup= 2.000000
  1      -0.070407642485
  2      -0.163793634033
  3      -0.120954602099
  4       0.025366793849
  5       0.292837690125
  6       0.032870909673
  7      -0.039756455289
  8      -0.184685421615
  9      -0.043585765828
 10      -0.011994046378
 11      -0.004325622106
 12       0.007496691361
 13      -0.021238530559
 14       0.006882864697
 15      -0.023708578182
 16      -0.055224288912
 17      -0.040600915203
 18      -0.240739267940
 19       0.018719450713
 20      -0.101605825041
 21       0.138866575081
 22      -0.000956852886
 23       0.046312093061
 24      -0.019927371576
 25      -0.004000500011
 26       0.007470638031
 27       0.020864402955
 28       0.007455137962
 29       0.118226972730
 30       0.274744031363
 31       0.203382663990
 32       0.174858003553
 33      -0.254478822875
 34       0.170183809077
 35      -0.138882954100
 36       0.181457510728
 37      -0.135429314046
 38       0.003973123801
 39      -0.003433922734
 40       0.006809109736
 41       0.006790382612
 42       0.007356110973
 43      -0.024623799806
 44      -0.057362651945
 45      -0.041794041368
 46      -0.106901198634
 47       0.014631132352
 48      -0.250246726959
 49       0.048958525361
 50       0.001543905511
 51       0.145514164628
 52       0.028286606708
 53      -0.003896829874
 54       0.008371261680
 55      -0.007085865952
 56       0.008072919742
 Sym=     1a
 Ene= -5.49742085647099E-01
 Spin= Alpha
 Occup= 2.000000
  1      -0.002080030181
  2      -0.005464193458
  3      -0.001287272562
  4      -0.185941724197
  5       0.258255830570
  6      -0.066013884166
  7       0.122171213548
  8      -0.172421317726
  9       0.042640582814
 10      -0.002423887034
 11      -0.025994432672
 12       0.019170297727
 13      -0.009076715779
 14       0.006965678855
 15       0.001232808947
 16       0.002726259235
 17       0.002021346450
 18       0.196686020592
 19      -0.263610002880
 20      -0.074892762568
 21      -0.130274396368
 22       0.173749416625
 23       0.049691706663
 24      -0.003043011581
 25       0.026507764277
 26      -0.019317788615
 27      -0.010131337437
 28       0.007108020657
 29      -0.001172109314
 30      -0.003225375760
 31      -0.000333354219
 32       0.186927811211
 33       0.256051620908
 34       0.062041923911
 35      -0.123384732312
 36      -0.170947391105
 37      -0.040581674842
 38      -0.001656276759
 39      -0.025866168028
 40      -0.019452533656
 41      -0.008662703196
 42      -0.007145633965
 43       0.002242146602
 44       0.005199586095
 45       0.003120224411
 46      -0.197593336578
 47      -0.259800827359
 48       0.076268723894
 49       0.131508690490
 50       0.171208416162
 51      -0.051199522740
 52      -0.002939472908
 53       0.026513941945
 54       0.019321081237
 55      -0.010070469401
 56      -0.006797661278
 Sym=     1a
 Ene= -5.44430884401222E-01
 Spin= Alpha
 Occup= 2.000000
  1       0.001754288309
  2       0.004712717783
  3       0.000708978823
  4      -0.194071050997
  5      -0.072820368932
  6       0.262529004769
  7       0.130939550481
  8       0.049811276453
  9      -0.174592564227
 10       0.009462718242
 11       0.007115391375
 12       0.019262660368
 13      -0.002499032686
 14      -0.026450186754
 15       0.001003407646
 16       0.002834654896
 17       0.000081866855
 18       0.193880745450
 19       0.076296249118
 20       0.264218792281
 21      -0.130208322301
 22      -0.051608809013
 23      -0.175696339727
 24       0.010157792023
 25      -0.006884915048
 26      -0.018977468520
 27      -0.002140063141
 28      -0.026572837721
 29      -0.001135009544
 30      -0.002489196517
 31      -0.001884028203
 32       0.184987367872
 33      -0.065360019187
 34      -0.257618309107
 35      -0.123849579524
 36       0.043667230001
 37       0.173212946118
 38       0.008413177965
 39       0.006955306853
 40      -0.019127868349
 41      -0.002530441214
 42       0.026040659277
 43      -0.001815931826
 44      -0.004206736324
 45      -0.002411969526
 46      -0.184744565236
 47       0.064070546953
 48      -0.260469037162
 49       0.123137189365
 50      -0.042291509104
 51       0.175094612273
 52       0.008470754002
 53      -0.007242134884
 54       0.019091517745
 55      -0.002521343343
 56       0.026026864550
 Sym=     1a
 Ene= 1.84002553617192E-01
 Spin= Alpha
 Occup= 0.000000
  1      -0.003962285445
  2      -0.009408625371
  3      -0.029963159543
  4      -0.257664859946
  5      -0.105494156640
  6       0.343298635123
  7       0.376707299095
  8       0.157205225836
  9      -0.490919885408
 10       0.000399311319
 11      -0.003230132503
 12      -0.007585879902
 13      -0.000080483056
 14       0.009750382490
 15       0.003308200930
 16       0.007773852621
 17       0.025876525733
 18      -0.180543074138
 19      -0.185196498151
 20      -0.341976076237
 21       0.265668662592
 22       0.271420973156
 23       0.490115219661
 24      -0.000033019088
 25      -0.005334924662
 26      -0.005428388366
 27      -0.000040284759
 28      -0.010068413061
 29       0.000709997552
 30       0.001698762441
 31       0.005191265212
 32       0.168121960598
 33       0.096553829071
 34      -0.076900146355
 35      -0.235580548405
 36      -0.134312089985
 37       0.111366550784
 38      -0.000097321510
 39       0.002073177505
 40       0.003923694950
 41      -0.000491043894
 42      -0.001994092255
 43      -0.000067147349
 44      -0.000109117135
 45      -0.001112935030
 46       0.245692289396
 47       0.174338030852
 48       0.071908885557
 49      -0.346899193218
 50      -0.245919315922
 51      -0.102517475921
 52      -0.000211289827
 53       0.004203411647
 54       0.006216083361
 55       0.000603451688
 56       0.002026661588
 Sym=     1a
 Ene= 1.86039994821157E-01
 Spin= Alpha
 Occup= 0.000000
  1       0.000734124441
  2       0.001740398948
  3       0.005603285605
  4      -0.006899146805
  5       0.046095776051
  6      -0.035507851822
  7       0.007637866936
  8      -0.066646987893
  9       0.050968355131
 10      -0.000231208305
 11       0.001068556488
 12       0.000340114581
 13       0.000288513851
 14      -0.001214445362
 15      -0.000524084483
 16      -0.001099609232
 17      -0.005679557815
 18      -0.262771427318
 19       0.302263128635
 20       0.035539154394
 21       0.376195250396
 22      -0.436090739823
 23      -0.050873226905
 24       0.000011517845
 25       0.008340607184
 26      -0.007134760149
 27       0.000166858598
 28       0.001091661237
 29      -0.000532327461
 30      -0.001120155181
 31      -0.005815200705
 32       0.265771616317
 33      -0.046135478692
 34      -0.307813765190
 35      -0.385965658817
 36       0.066938348835
 37       0.443602771699
 38       0.000487830577
 39      -0.001196669330
 40       0.007712830036
 41      -0.000193050951
 42      -0.008800433099
 43       0.000322139380
 44       0.000478828159
 45       0.005891343930
 46       0.010547661172
 47      -0.301115651136
 48       0.308873910900
 49      -0.017724406812
 50       0.434952383067
 51      -0.444653284930
 52      -0.000260197286
 53      -0.008397921434
 54       0.000433071895
 55      -0.000304320781
 56       0.008760177800
 Sym=     1a
 Ene= 1.87874358893074E-01
 Spin= Alpha
 Occup= 0.000000
  1      -0.003893419868
  2      -0.009217562842
  3      -0.029957724511
  4       0.251497439726
  5      -0.348284863034
  6       0.077191040915
  7      -0.357328534473
  8       0.506497031067
  9      -0.106194798515
 10       0.000057095224
 11      -0.009690102519
 12       0.006761112471
 13       0.000362804555
 14       0.001912098601
 15       0.000841958355
 16       0.002056720416
 17       0.005733663148
 18      -0.177610138426
 19       0.086520938380
 20      -0.085431923390
 21       0.262661441647
 22      -0.124146934476
 23       0.127769484117
 24       0.000267561354
 25       0.002578282980
 26      -0.005761786455
 27       0.000164163584
 28      -0.003005830772
 29       0.003085929006
 30       0.007223813891
 31       0.024841557084
 32       0.165615686863
 33       0.348769731280
 34       0.160831084693
 35      -0.233303636929
 36      -0.505461656930
 37      -0.227427723035
 38      -0.000302976424
 39       0.009334929251
 40       0.004317365732
 41      -0.000635153272
 42       0.004383157870
 43      -0.000023920798
 44      -0.000021156804
 45      -0.000611607672
 46      -0.263087847133
 47      -0.091970916840
 48      -0.170861255453
 49       0.386540065661
 50       0.134180877579
 51       0.251548222829
 52      -0.000013119674
 53      -0.002579362519
 54      -0.008061509562
 55       0.000092162501
 56      -0.005476788006
 Sym=     1a
 Ene= 2.82567021081679E-01
 Spin= Alpha
 Occup= 0.000000
  1      -0.114634212765
  2      -0.271708242609
  3      -1.108288361502
  4      -0.188432840823
  5      -0.230282423303
  6      -0.118729190341
  7       0.537598895503
  8       0.723587470733
  9       0.202239141775
 10      -0.008264775811
 11      -0.021723804321
 12      -0.011828059472
 13      -0.003306522109
 14       0.008066096160
 15       0.145706208022
 16       0.344242446903
 17       1.414639562783
 18      -0.222962151739
 19      -0.267832507773
 20       0.199945385981
 21       0.613152859235
 22       0.802787689710
 23      -0.468418648336
 24       0.005293852426
 25      -0.020454825232
 26      -0.010272787687
 27       0.003102996214
 28       0.000454616104
 29      -0.048922494696
 30      -0.116257552699
 31      -0.471633070710
 32      -0.013972142355
 33      -0.168641969597
 34       0.074294356028
 35       0.167076290976
 36       0.589569852502
 37      -0.203374150676
 38      -0.000007503946
 39      -0.024342591798
 40      -0.017171923147
 41      -0.012326227046
 42       0.003322086990
 43       0.017097602459
 44       0.040472642443
 45       0.165594536572
 46      -0.047334773666
 47      -0.130838433851
 48       0.003223001743
 49       0.236844357201
 50       0.508763418168
 51      -0.052564239652
 52       0.003723620398
 53      -0.025202756336
 54      -0.015976011273
 55       0.012201373705
 56       0.005476651764
 Sym=     1a
 Ene= 2.85925229828476E-01
 Spin= Alpha
 Occup= 0.000000
  1      -0.034489524260
  2      -0.081400354389
  3      -0.340010724117
  4       0.044351679652
  5      -0.105429093049
  6      -0.101241184742
  7      -0.284149128398
  8       0.369027679487
  9       0.364145103885
 10       0.005941238555
 11      -0.014114748741
 12       0.021815162477
 13      -0.011001051039
 14      -0.015050522410
 15      -0.067494371070
 16      -0.158878771033
 17      -0.667422925585
 18       0.161605422653
 19       0.013004254304
 20      -0.145313056424
 21      -0.537080069593
 22       0.111477009077
 23       0.458154709344
 24       0.004494460541
 25      -0.017706947020
 26       0.018222589298
 27       0.010895049439
 28      -0.013798097542
 29      -0.063828476084