[Molden Format]                                                                 
[ATOMS] AU                                                                      
C        1    6        0.0000000000        0.0000000000        0.0000000000     
H        2    1        1.6813033065        0.0000000000        1.1888609692     
H        3    1       -1.6813033065        0.0000000000        1.1888609692     
H        4    1        0.0000000000       -1.6813033065       -1.1888609692     
H        5    1        0.0000000000        1.6813033065       -1.1888609692     
[Molden Format]                                                                 
[GTO]                                                                           
  1 0
s  11 1.00
   312100.00000000000        5.6699999999999999E-006                            
   46740.000000000000        4.4100000000000001E-005                            
   10640.000000000000        2.3190000000000000E-004                            
   3013.0000000000000        9.7897000000000001E-004                            
   982.79999999999995        3.5516300000000001E-003                            
   354.80000000000001        1.1440610000000000E-002                            
   138.40000000000001        3.2998550000000001E-002                            
   57.350000000000001        8.4053470000000005E-002                            
   24.920000000000002       0.18067612999999999                                 
   11.230000000000000       0.30491140000000000                                 
   5.2009999999999996       0.34141569999999999                                 
s   1 1.00
   2.4260000000000002        1.0000000000000000                                 
s   1 1.00
  0.96730000000000005        1.0000000000000000                                 
s   1 1.00
  0.44560000000000000        1.0000000000000000                                 
s   1 1.00
  0.19710000000000000        1.0000000000000000                                 
s   1 1.00
   8.6349999999999996E-002   1.0000000000000000                                 
f   3 1.00
   60.043438279533717       0.11407461847341316                                 
   22.167505485221010       0.10668188273112433                                 
   4.8023959698887424        15.216852924688135                                 
f   1 1.00
   1.4833907695011570        1.0000000000000000                                 
f   1 1.00
  0.46178952710355969        1.0000000000000000                                 
f   1 1.00
  0.30249228070031442        1.0000000000000000                                 
f   1 1.00
   9.0284122197480249E-002   1.0000000000000000                                 

  2 0
s   8 1.00
   13940.799999999999        3.0100000000000000E-006                            
   3471.4299999999998        5.4399999999999996E-006                            
   1903.1800000000001        1.7850000000000000E-005                            
   623.28599999999994        7.1950000000000001E-005                            
   290.36000000000001        1.2055000000000000E-004                            
   126.58499999999999        5.2526999999999999E-004                            
   44.695500000000003        2.0138399999999998E-003                            
   16.003799999999998        6.8708600000000003E-003                            
s   1 1.00
   6.0805600000000002        1.0000000000000000                                 
s   1 1.00
   2.4762200000000001        1.0000000000000000                                 
s   1 1.00
   1.0757099999999999        1.0000000000000000                                 
s   1 1.00
  0.48968200000000001        1.0000000000000000                                 
s   1 1.00
  0.22978599999999999        1.0000000000000000                                 
s   1 1.00
  0.10996549999999999        1.0000000000000000                                 
s   1 1.00
   5.2323000000000001E-002   1.0000000000000000                                 
f   3 1.00
   10.178704699742342        5.9884370424923472E-004                            
   2.3952640718028237       -9.8094243397848932E-002                            
   1.0486496863195751       0.94847150361269594                                 
f   1 1.00
  0.72018956988162897        1.0000000000000000                                 
f   1 1.00
  0.33281514997841094        1.0000000000000000                                 
f   1 1.00
  0.12166473257337672        1.0000000000000000                                 

  3 0
s   8 1.00
   13940.799999999999        3.0100000000000000E-006                            
   3471.4299999999998        5.4399999999999996E-006                            
   1903.1800000000001        1.7850000000000000E-005                            
   623.28599999999994        7.1950000000000001E-005                            
   290.36000000000001        1.2055000000000000E-004                            
   126.58499999999999        5.2526999999999999E-004                            
   44.695500000000003        2.0138399999999998E-003                            
   16.003799999999998        6.8708600000000003E-003                            
s   1 1.00
   6.0805600000000002        1.0000000000000000                                 
s   1 1.00
   2.4762200000000001        1.0000000000000000                                 
s   1 1.00
   1.0757099999999999        1.0000000000000000                                 
s   1 1.00
  0.48968200000000001        1.0000000000000000                                 
s   1 1.00
  0.22978599999999999        1.0000000000000000                                 
s   1 1.00
  0.10996549999999999        1.0000000000000000                                 
s   1 1.00
   5.2323000000000001E-002   1.0000000000000000                                 
f   3 1.00
   10.178704699742342        5.9884370424923472E-004                            
   2.3952640718028237       -9.8094243397848932E-002                            
   1.0486496863195751       0.94847150361269594                                 
f   1 1.00
  0.72018956988162897        1.0000000000000000                                 
f   1 1.00
  0.33281514997841094        1.0000000000000000                                 
f   1 1.00
  0.12166473257337672        1.0000000000000000                                 

  4 0
s   8 1.00
   13940.799999999999        3.0100000000000000E-006                            
   3471.4299999999998        5.4399999999999996E-006                            
   1903.1800000000001        1.7850000000000000E-005                            
   623.28599999999994        7.1950000000000001E-005                            
   290.36000000000001        1.2055000000000000E-004                            
   126.58499999999999        5.2526999999999999E-004                            
   44.695500000000003        2.0138399999999998E-003                            
   16.003799999999998        6.8708600000000003E-003                            
s   1 1.00
   6.0805600000000002        1.0000000000000000                                 
s   1 1.00
   2.4762200000000001        1.0000000000000000                                 
s   1 1.00
   1.0757099999999999        1.0000000000000000                                 
s   1 1.00
  0.48968200000000001        1.0000000000000000                                 
s   1 1.00
  0.22978599999999999        1.0000000000000000                                 
s   1 1.00
  0.10996549999999999        1.0000000000000000                                 
s   1 1.00
   5.2323000000000001E-002   1.0000000000000000                                 
f   3 1.00
   10.178704699742342        5.9884370424923472E-004                            
   2.3952640718028237       -9.8094243397848932E-002                            
   1.0486496863195751       0.94847150361269594                                 
f   1 1.00
  0.72018956988162897        1.0000000000000000                                 
f   1 1.00
  0.33281514997841094        1.0000000000000000                                 
f   1 1.00
  0.12166473257337672        1.0000000000000000                                 

  5 0
s   8 1.00
   13940.799999999999        3.0100000000000000E-006                            
   3471.4299999999998        5.4399999999999996E-006                            
   1903.1800000000001        1.7850000000000000E-005                            
   623.28599999999994        7.1950000000000001E-005                            
   290.36000000000001        1.2055000000000000E-004                            
   126.58499999999999        5.2526999999999999E-004                            
   44.695500000000003        2.0138399999999998E-003                            
   16.003799999999998        6.8708600000000003E-003                            
s   1 1.00
   6.0805600000000002        1.0000000000000000                                 
s   1 1.00
   2.4762200000000001        1.0000000000000000                                 
s   1 1.00
   1.0757099999999999        1.0000000000000000                                 
s   1 1.00
  0.48968200000000001        1.0000000000000000                                 
s   1 1.00
  0.22978599999999999        1.0000000000000000                                 
s   1 1.00
  0.10996549999999999        1.0000000000000000                                 
s   1 1.00
   5.2323000000000001E-002   1.0000000000000000                                 
f   3 1.00
   10.178704699742342        5.9884370424923472E-004                            
   2.3952640718028237       -9.8094243397848932E-002                            
   1.0486496863195751       0.94847150361269594                                 
f   1 1.00
  0.72018956988162897        1.0000000000000000                                 
f   1 1.00
  0.33281514997841094        1.0000000000000000                                 
f   1 1.00
  0.12166473257337672        1.0000000000000000                                 

                                                                                
[MO]
 Sym= A
 Ene=  -11.886871032591404     
 Spin= Alpha
 Occup= 1.0
  1        0.8573855818
  2        0.1770359492
  3        0.0128376024
  4        0.0031799681
  5       -0.0048468957
  6        0.0094516790
  7       -0.0000000000
  8        0.0000000000
  9       -0.0000000000
 10        0.0000000000
 11       -0.0000000000
 12       -0.0000011330
 13       -0.0000000000
 14        0.0000000000
 15        0.0000011330
 16        0.0000000000
 17        0.0000000000
 18       -0.0000000000
 19       -0.0000000000
 20       -0.0000000000
 21        0.0000000000
 22        0.0000641985
 23       -0.0000000000
 24       -0.0000000000
 25       -0.0000641985
 26       -0.0000000000
 27       -0.0000000000
 28        0.0000000000
 29        0.0000000000
 30        0.0000000000
 31       -0.0000000000
 32        0.0002381330
 33       -0.0000000000
 34        0.0000000000
 35       -0.0002381330
 36       -0.0000000000
 37        0.0000000000
 38       -0.0000000000
 39       -0.0000000000
 40       -0.0000000000
 41        0.0000000000
 42       -0.0004241288
 43        0.0000000000
 44       -0.0000000000
 45        0.0004241288
 46        0.0000000000
 47        0.0000000000
 48        0.0000000000
 49        0.0000000000
 50       -0.0000000000
 51       -0.0000000000
 52        0.0002569217
 53        0.0000000000
 54        0.0000000000
 55       -0.0002569217
 56        0.0000000000
 57        0.0000082959
 58        0.0000083207
 59        0.0000380906
 60       -0.0000008964
 61        0.0003238045
 62        0.0008955771
 63       -0.0028614082
 64        0.0000376712
 65       -0.0000038974
 66        0.0000000000
 67        0.0000110236
 68        0.0000350768
 69        0.0000000000
 70       -0.0000412023
 71       -0.0000233845
 72       -0.0000000000
 73        0.0000081316
 74       -0.0000000000
 75        0.0000022995
 76       -0.0000000000
 77       -0.0000065039
 78       -0.0000206953
 79       -0.0000000000
 80       -0.0000067799
 81        0.0000137968
 82        0.0000000000
 83        0.0000262916
 84       -0.0000000000
 85       -0.0000027421
 86       -0.0000000000
 87        0.0000077559
 88        0.0000246792
 89        0.0000000000
 90        0.0000256333
 91       -0.0000164528
 92       -0.0000000000
 93       -0.0000489011
 94        0.0000000000
 95        0.0000015846
 96       -0.0000000000
 97       -0.0000044818
 98       -0.0000142611
 99       -0.0000000000
100       -0.0000160843
101        0.0000095074
102        0.0000000000
103        0.0000295298
104       -0.0000000000
105        0.0000082959
106        0.0000083207
107        0.0000380906
108       -0.0000008964
109        0.0003238045
110        0.0008955771
111       -0.0028614082
112        0.0000376712
113        0.0000038974
114        0.0000000000
115        0.0000110236
116       -0.0000350768
117        0.0000000000
118       -0.0000412023
119        0.0000233845
120       -0.0000000000
121        0.0000081316
122        0.0000000000
123       -0.0000022995
124       -0.0000000000
125       -0.0000065039
126        0.0000206953
127       -0.0000000000
128       -0.0000067799
129       -0.0000137968
130        0.0000000000
131        0.0000262916
132       -0.0000000000
133        0.0000027421
134       -0.0000000000
135        0.0000077559
136       -0.0000246792
137        0.0000000000
138        0.0000256333
139        0.0000164528
140        0.0000000000
141       -0.0000489011
142        0.0000000000
143       -0.0000015846
144        0.0000000000
145       -0.0000044818
146        0.0000142611
147       -0.0000000000
148       -0.0000160843
149       -0.0000095074
150       -0.0000000000
151        0.0000295298
152       -0.0000000000
153        0.0000082959
154        0.0000083207
155        0.0000380906
156       -0.0000008964
157        0.0003238045
158        0.0008955771
159       -0.0028614082
160        0.0000376712
161        0.0000000000
162        0.0000038974
163       -0.0000110236
164       -0.0000000000
165       -0.0000350768
166       -0.0000081316
167        0.0000000000
168        0.0000233845
169        0.0000412023
170       -0.0000000000
171       -0.0000000000
172       -0.0000022995
173        0.0000065039
174        0.0000000000
175        0.0000206953
176       -0.0000262916
177       -0.0000000000
178       -0.0000137968
179        0.0000067799
180        0.0000000000
181        0.0000000000
182        0.0000027421
183       -0.0000077559
184       -0.0000000000
185       -0.0000246792
186        0.0000489011
187        0.0000000000
188        0.0000164528
189       -0.0000256333
190       -0.0000000000
191        0.0000000000
192       -0.0000015846
193        0.0000044818
194       -0.0000000000
195        0.0000142611
196       -0.0000295298
197       -0.0000000000
198       -0.0000095074
199        0.0000160843
200        0.0000000000
201        0.0000082959
202        0.0000083207
203        0.0000380906
204       -0.0000008964
205        0.0003238045
206        0.0008955771
207       -0.0028614082
208        0.0000376712
209        0.0000000000
210       -0.0000038974
211       -0.0000110236
212       -0.0000000000
213        0.0000350768
214       -0.0000081316
215       -0.0000000000
216       -0.0000233845
217        0.0000412023
218        0.0000000000
219       -0.0000000000
220        0.0000022995
221        0.0000065039
222        0.0000000000
223       -0.0000206953
224       -0.0000262916
225        0.0000000000
226        0.0000137968
227        0.0000067799
228       -0.0000000000
229        0.0000000000
230       -0.0000027421
231       -0.0000077559
232       -0.0000000000
233        0.0000246792
234        0.0000489011
235       -0.0000000000
236       -0.0000164528
237       -0.0000256333
238        0.0000000000
239       -0.0000000000
240        0.0000015846
241        0.0000044818
242        0.0000000000
243       -0.0000142611
244       -0.0000295298
245        0.0000000000
246        0.0000095074
247        0.0000160843
248       -0.0000000000
 Sym= A
 Ene=  -1.1823653552353584     
 Spin= Alpha
 Occup= 1.0
  1        0.2089905813
  2        0.1898178194
  3       -0.2303128079
  4       -0.3134805932
  5       -0.5702663141
  6        1.4301797885
  7       -0.0000000000
  8       -0.0000000000
  9       -0.0000000000
 10       -0.0000000000
 11        0.0000000000
 12        0.0003319326
 13        0.0000000000
 14       -0.0000000000
 15       -0.0003319326
 16       -0.0000000000
 17       -0.0000000000
 18        0.0000000000
 19       -0.0000000000
 20        0.0000000000
 21       -0.0000000000
 22       -0.0034765384
 23        0.0000000000
 24        0.0000000000
 25        0.0034765384
 26        0.0000000000
 27       -0.0000000000
 28       -0.0000000000
 29       -0.0000000000
 30        0.0000000000
 31        0.0000000000
 32       -0.0174302817
 33       -0.0000000000
 34       -0.0000000000
 35        0.0174302817
 36       -0.0000000000
 37        0.0000000000
 38        0.0000000000
 39        0.0000000000
 40       -0.0000000000
 41       -0.0000000000
 42        0.0063837590
 43        0.0000000000
 44        0.0000000000
 45       -0.0063837590
 46        0.0000000000
 47       -0.0000000000
 48       -0.0000000000
 49       -0.0000000000
 50        0.0000000000
 51        0.0000000000
 52        0.0373365244
 53       -0.0000000000
 54       -0.0000000000
 55       -0.0373365244
 56       -0.0000000000
 57       -0.0032301885
 58       -0.0058042537
 59       -0.0224748401
 60       -0.0312325328
 61       -0.0389701608
 62       -0.0105170981
 63       -0.4165590511
 64       -0.0000978793
 65       -0.0000190131
 66       -0.0000000000
 67        0.0000537772
 68        0.0001711181
 69       -0.0000000000
 70       -0.0015827134
 71       -0.0001140788
 72        0.0000000000
 73        0.0014213817
 74        0.0000000000
 75       -0.0000688632
 76        0.0000000000
 77        0.0001947745
 78        0.0006197687
 79        0.0000000000
 80        0.0016162853
 81       -0.0004131791
 82       -0.0000000000
 83       -0.0022006088
 84       -0.0000000000
 85        0.0000186366
 86        0.0000000000
 87       -0.0000527122
 88       -0.0001677292
 89       -0.0000000000
 90        0.0001412396
 91        0.0001118195
 92        0.0000000000
 93        0.0000168970
 94        0.0000000000
 95        0.0002278101
 96       -0.0000000000
 97       -0.0006443444
 98       -0.0020502913
 99        0.0000000000
100        0.0002915136
101        0.0013668609
102        0.0000000000
103        0.0016415196
104        0.0000000000
105       -0.0032301885
106       -0.0058042537
107       -0.0224748401
108       -0.0312325328
109       -0.0389701608
110       -0.0105170981
111       -0.4165590511
112       -0.0000978793
113        0.0000190131
114       -0.0000000000
115        0.0000537772
116       -0.0001711181
117       -0.0000000000
118       -0.0015827134
119        0.0001140788
120        0.0000000000
121        0.0014213817
122       -0.0000000000
123        0.0000688632
124        0.0000000000
125        0.0001947745
126       -0.0006197687
127        0.0000000000
128        0.0016162853
129        0.0004131791
130       -0.0000000000
131       -0.0022006088
132        0.0000000000
133       -0.0000186366
134       -0.0000000000
135       -0.0000527122
136        0.0001677292
137       -0.0000000000
138        0.0001412396
139       -0.0001118195
140        0.0000000000
141        0.0000168970
142       -0.0000000000
143       -0.0002278101
144       -0.0000000000
145       -0.0006443444
146        0.0020502913
147        0.0000000000
148        0.0002915136
149       -0.0013668609
150        0.0000000000
151        0.0016415196
152       -0.0000000000
153       -0.0032301885
154       -0.0058042537
155       -0.0224748401
156       -0.0312325328
157       -0.0389701608
158       -0.0105170981
159       -0.4165590511
160       -0.0000978793
161       -0.0000000000
162        0.0000190131
163       -0.0000537772
164       -0.0000000000
165       -0.0001711181
166       -0.0014213817
167        0.0000000000
168        0.0001140788
169        0.0015827134
170       -0.0000000000
171        0.0000000000
172        0.0000688632
173       -0.0001947745
174        0.0000000000
175       -0.0006197687
176        0.0022006088
177       -0.0000000000
178        0.0004131791
179       -0.0016162853
180        0.0000000000
181       -0.0000000000
182       -0.0000186366
183        0.0000527122
184        0.0000000000
185        0.0001677292
186       -0.0000168970
187        0.0000000000
188       -0.0001118195
189       -0.0001412396
190        0.0000000000
191        0.0000000000
192       -0.0002278101
193        0.0006443444
194       -0.0000000000
195        0.0020502913
196       -0.0016415196
197       -0.0000000000
198       -0.0013668609
199       -0.0002915136
200       -0.0000000000
201       -0.0032301885
202       -0.0058042537
203       -0.0224748401
204       -0.0312325329
205       -0.0389701608
206       -0.0105170981
207       -0.4165590511
208       -0.0000978793
209       -0.0000000000
210       -0.0000190131
211       -0.0000537772
212       -0.0000000000
213        0.0001711181
214       -0.0014213817
215        0.0000000000
216       -0.0001140788
217        0.0015827134
218       -0.0000000000
219        0.0000000000
220       -0.0000688632
221       -0.0001947745
222        0.0000000000
223        0.0006197687
224        0.0022006088
225       -0.0000000000
226       -0.0004131791
227       -0.0016162853
228        0.0000000000
229       -0.0000000000
230        0.0000186366
231        0.0000527122
232        0.0000000000
233       -0.0001677292
234       -0.0000168970
235        0.0000000000
236        0.0001118195
237       -0.0001412396
238       -0.0000000000
239        0.0000000000
240        0.0002278101
241        0.0006443444
242       -0.0000000000
243       -0.0020502913
244       -0.0016415196
245       -0.0000000000
246        0.0013668609
247       -0.0002915136
248        0.0000000000
 Sym= A
 Ene= -0.55252984054595489     
 Spin= Alpha
 Occup= 1.0
  1       -0.0000000000
  2        0.0000000000
  3       -0.0000000000
  4        0.0000000000
  5       -0.0000000001
  6        0.0000000005
  7        0.0000516871
  8        0.0000053599
  9       -0.0000739155
 10       -0.0004651838
 11       -0.0000482389
 12        0.0001108733
 13        0.0003101226
 14        0.0000321593
 15        0.0001108733
 16       -0.0000000000
 17       -0.0001814635
 18       -0.0000188175
 19        0.0002595032
 20        0.0016331712
 21        0.0001693574
 22       -0.0003892548
 23       -0.0010887808
 24       -0.0001129050
 25       -0.0003892548
 26        0.0000000000
 27        0.0077790723
 28        0.0008066783
 29       -0.0111245224
 30       -0.0700116508
 31       -0.0072601047
 32        0.0166867836
 33        0.0466744339
 34        0.0048400698
 35        0.0166867836
 36       -0.0000000000
 37       -0.0129832850
 38       -0.0013463475
 39        0.0185668469
 40        0.1168495649
 41        0.0121171272
 42       -0.0278502703
 43       -0.0778997099
 44       -0.0080780848
 45       -0.0278502703
 46        0.0000000000
 47        0.0080361951
 48        0.0008333415
 49       -0.0114922228
 50       -0.0723257555
 51       -0.0075000739
 52        0.0172383341
 53        0.0482171703
 54        0.0050000493
 55        0.0172383341
 56       -0.0000000000
 57        0.0076213179
 58        0.0150822312
 59        0.0585564835
 60        0.0184129572
 61        0.3524899823
 62        0.4277092334
 63        0.2043296672
 64       -0.0773554569
 65       -0.0007831918
 66        0.0002598085
 67       -0.0050047849
 68       -0.0081165795
 69        0.0008426000
 70        0.0316929601
 71        0.0104661550
 72       -0.0016220255
 73       -0.0166786056
 74       -0.0022492194
 75       -0.0008995466
 76       -0.0003012858
 77        0.0144184002
 78        0.0306341307
 79       -0.0020157489
 80       -0.0852504053
 81       -0.0279354909
 82        0.0029196062
 83        0.0419952047
 84        0.0033427207
 85        0.0085277381
 86       -0.0016004380
 87       -0.0123535003
 88       -0.0295878654
 89        0.0045119035
 90        0.0748876701
 91        0.0040046510
 92        0.0002894106
 93       -0.0378271691
 94        0.0069947277
 95       -0.0067791368
 96        0.0005138382
 97       -0.0041178970
 98        0.0182728951
 99        0.0043399011
100       -0.0152035717
101        0.0020645152
102       -0.0058814158
103        0.0275572627
104       -0.0063388200
105       -0.0045455284
106       -0.0089953880
107       -0.0349244272
108       -0.0109819092
109       -0.2102330947
110       -0.2550955780
111       -0.1218668913
112        0.0461365654
113       -0.0056456996
114        0.0002598085
115        0.0060187304
116        0.0046280598
117        0.0008426000
118       -0.0234530502
119        0.0123090390
120       -0.0016220255
121        0.0053968590
122        0.0022492194
123        0.0074899033
124       -0.0003012858
125       -0.0149758043
126        0.0012269763
127       -0.0020157489
128        0.0604098038
129       -0.0236966862
130        0.0029196062
131       -0.0154823909
132       -0.0033427207
133        0.0181065751
134       -0.0016004380
135        0.0153800887
136       -0.0193363858
137        0.0045119035
138       -0.0566829883
139       -0.0349833395
140        0.0002894106
141        0.0105427221
142       -0.0069947277
143       -0.0194875131
144        0.0005138382
145        0.0158132075
146        0.0452325863
147        0.0043399011
148       -0.0109680410
149        0.0132299529
150       -0.0058814158
151       -0.0364715815
152        0.0063388200
153       -0.0021687367
154       -0.0042918284
155       -0.0166629443
156       -0.0052396261
157       -0.1003052195
158       -0.1217097525
159       -0.0581444387
160        0.0220124159
161        0.0025054215
162        0.0020979206
163       -0.0000645884
164        0.0081254777
165       -0.0065531968
166       -0.0067854698
167       -0.0156417422
168        0.0002594350
169        0.0069792349
170       -0.0216899852
171       -0.0029054010
172       -0.0038530198
173        0.0012453657
174       -0.0194385498
175        0.0163555521
176        0.0162365778
177        0.0281547528
178       -0.0047964925
179       -0.0199726749
180        0.0322349891
181       -0.0154335666
182       -0.0034084490
183        0.0000753281
184        0.0435098153
185       -0.0076624260
186       -0.0161501666
187        0.0027908844
188        0.0178877731
189        0.0159241823
190        0.0674525308
191        0.0049551162
192        0.0049922818
193        0.0048142422
194        0.0418511379
195       -0.0101871333
196       -0.0011373112
197       -0.0567164865
198       -0.0047897120
199       -0.0133054155
200       -0.0611273897
201       -0.0009070527
202       -0.0017950149
203       -0.0069691120
204       -0.0021914219
205       -0.0419516681
206       -0.0509039028
207       -0.0243183377
208        0.0092064757
209        0.0025054215
210       -0.0027645872
211        0.0010785339
212        0.0081254777
213        0.0061914425
214       -0.0044962768
215       -0.0156417422
216        0.0021023190
217        0.0012606751
218        0.0216899852
219       -0.0029054010
220        0.0045364301
221       -0.0018027698
222       -0.0194385498
223       -0.0130516023
224        0.0102762361
225        0.0281547528
226       -0.0005576879
227       -0.0048679265
228       -0.0322349891
229       -0.0154335666
230        0.0061703879
231        0.0029512603
232        0.0435098153
233        0.0025890535
234       -0.0111342804
235        0.0027908844
236       -0.0211002173
237        0.0022804995
238       -0.0674525308
239        0.0049551162
240       -0.0077160945
241        0.0068810683
242        0.0418511379
243        0.0167725579
244       -0.0077770077
245       -0.0567164865
246        0.0063757257
247       -0.0128661972
248        0.0611273897
 Sym= A
 Ene= -0.55252984054594279     
 Spin= Alpha
 Occup= 1.0
  1        0.0000000000
  2       -0.0000000000
  3        0.0000000000
  4       -0.0000000000
  5        0.0000000001
  6       -0.0000000008
  7       -0.0000041802
  8        0.0000548319
  9        0.0000168476
 10        0.0000376216
 11       -0.0004934873
 12       -0.0000252714
 13       -0.0000250810
 14        0.0003289915
 15       -0.0000252714
 16       -0.0000000000
 17        0.0000146758
 18       -0.0001925043
 19       -0.0000591487
 20       -0.0001320821
 21        0.0017325390
 22        0.0000887230
 23        0.0000880547
 24       -0.0011550260
 25        0.0000887230
 26        0.0000000000
 27       -0.0006291295
 28        0.0082523781
 29        0.0025356173
 30        0.0056621653
 31       -0.0742714032
 32       -0.0038034259
 33       -0.0037747768
 34        0.0495142688
 35       -0.0038034259
 36       -0.0000000000
 37        0.0010500182
 38       -0.0137732332
 39       -0.0042319495
 40       -0.0094501635
 41        0.1239590988
 42        0.0063479243
 43        0.0063001090
 44       -0.0826393992
 45        0.0063479243
 46        0.0000000000
 47       -0.0006499242
 48        0.0085251451
 49        0.0026194274
 50        0.0058493176
 51       -0.0767263060
 52       -0.0039291411
 53       -0.0038995451
 54        0.0511508707
 55       -0.0039291410
 56       -0.0000000000
 57       -0.0008425275
 58       -0.0016673225
 59       -0.0064733488
 60       -0.0020355303
 61       -0.0389673433
 62       -0.0472827410
 63       -0.0225883986
 64        0.0085515527
 65       -0.0002941897
 66        0.0026578601
 67        0.0003302067
 68        0.0015935120
 69        0.0086198600
 70       -0.0031690193
 71       -0.0007109428