 --invoking executable--
/usr/local/cfour/bin/xjoda


   *************************************************************************
         <<<     CCCCCC     CCCCCC   |||     CCCCCC     CCCCCC   >>>
       <<<      CCC        CCC       |||    CCC        CCC         >>>
      <<<      CCC        CCC        |||   CCC        CCC            >>>
    <<<        CCC        CCC        |||   CCC        CCC              >>>
      <<<      CCC        CCC        |||   CCC        CCC            >>>
       <<<      CCC        CCC       |||    CCC        CCC         >>>
         <<<     CCCCCC     CCCCCC   |||     CCCCCC     CCCCCC   >>>
   *************************************************************************

     ****************************************************************
     * CFOUR Coupled-Cluster techniques for Computational Chemistry *
     ****************************************************************


   Department of Chemistry                Institut fuer Physikalische Chemie
   University of Texas at Austin          Universitaet Mainz
   Austin, TX  78712, USA                 D-55099 Mainz, Germany

                       Version 2.00beta

                     kbob-G41MT-S2                                     
                     Пн. мая 11 17:27:55 KRAT 2015                
                     integer*8 version is running

********************************************************************************
*                          Input from ZMAT file                                *
********************************************************************************
CFOUR input file for CASINO with sf-orbitals                                    
C       0.000000      0.000000      0.000000                                    
H       0.629118      0.629118      0.629118                                    
H      -0.629118     -0.629118      0.629118                                    
H       0.629118     -0.629118     -0.629118                                    
H      -0.629118      0.629118     -0.629118                                    
                                                                                
*CFOUR(CALC=HF                                                                  
SYMMETRY=OFF                                                                    
BASIS=svp                                                                       
COORD=CARTESIAN)                                                                
                                                                                
********************************************************************************
    -------------------------------------------------------------------
                    CFOUR Control Parameters 
    -------------------------------------------------------------------
        External           Internal           Value            Units
          Name               Name
    -------------------------------------------------------------------
       ABCDTYPE             IABCDT         STANDARD     [  0]   ***   
       ANHARMONIC           IANHAR         OFF          [  0]   ***   
       ANH_ALGORIT          IANALG         STANDARD     [  0]   ***   
       ANH_DERIVAT          IANDER         SECOND       [  1]   ***   
       ANH_STEPSIZ          ICUBST             50000          x 10-6  
       ANH_SYMMETR          IANHSM         ABELIAN      [  0]   ***   
       AO_LADDERS           IAOLAD         SINGLEPASS   [  1]   ***   
       BASIS                IBASIS         svp          [ 28]   ***   
       BREIT                IBREIT         OFF          [  0]   ***   
       BRUCK_CONV           IBRTOL          10D-  4             ***   
       BRUECKNER            IBRKNR             OFF      [  0]   ***   
       BUFFERSIZE           IBUFFS            600               ***   
       CACHE_RECS           ICHREC             10               ***   
       CALCLEVEL            ICLLVL           SCF        [  0]   ***   
       CCORBOPT             ICCORB             OFF      [  0] x 0.01  
       CC_CONV              ICCCNV          10D-  7             ***   
       CC_EXPORDER          ICCEOR              0               ***   
       CC_EXTRAPOL          ICCEXT             DIIS     [  1]   ***   
       CC_MAXCYC            ICCCYC              0              cycles 
       CC_PROGRAM           ICCPRO         VCC          [  0]   ***   
       CHARGE               ICHRGE              0               ***   
       CHOLESKY             ICHOLE         OFF          [  0]   ***   
       CIS_CONV             ICISTL              5               ***   
       COMM_SIZE            IPSIZE            ***               ***   
       CONSTANT             ICONST         OLD          [  1]   ***   
       CONTINUUM            ICONTU         NONE         [  0]   ***   
       CONTRACTION          ICNTYP          GENERAL     [  1]   ***   
       COORDINATES          ICOORD         CARTESIAN    [  1]   ***   
       CPHF_CONVER          ICPHFT          10D- 16             ***   
       CPHF_MAXCYC          ICPHFC             64              cycles 
       CUBIC                ICUBIC         OFF          [  0]   ***   
       CURVILINEAR          ICURVY            OFF       [  0]   ***   
       DBOC                 IDBOC          OFF          [  0]   ***   
       DCT                  IDCT           OFF          [  0]   ***   
       DERIV_LEV            IDRLVL            ZERO      [  0]   ***   
       DIAG_MRCC            IEOMST          10D-  0             ***   
       DIFF_TYPE            IDIFTY         RELAXED      [  0]   ***   
       DIRECT               IDIRCT         OFF          [  0]   ***   
       DROPMO               IDRPMO      NONE         
       ECP                  IECP           OFF          [  0]   ***   
       EIGENVECTOR          IVEC                1               ***   
       EL_ANHARM            IELANH         OFF          [  0]   ***   
       EOMFOLLOW            IEOMSR         ENERGY       [  0]   ***   
       EOM_MRCC             IMRCCE         NEW          [  1]   ***   
       EOM_NONIT            EOMNON         OFF          [  0]   ***   
       EOM_NSING            IEOMSI          10D-  0             ***   
       EOM_NSTATES          IMRCCD         DAVIDSON     [  0]   ***   
       EOM_NTRIP            IEOMTR          10D-  0             ***   
       EOM_ORDER            IEXORD         ENERGY       [  0]   ***   
       ESTATE_CONV          IEXTOL          10D-  5             ***   
       ESTATE_DIAG          IEXDIG         ITERATIVE    [  0]   ***   
       ESTATE_LOCK          IESLOC         ON           [  1]   ***   
       ESTATE_MAXC          IEXMXC             20               ***   
       ESTATE_PROP          IEXPRP         OFF          [  0]   ***   
       EVAL_HESS            IRECAL              0            # of cyc.
       EXCITATION           IEXCIT              0               ***   
       EXCITE               IEXCIT         NONE         [  0]   ***   
       FCGRADNEW            IFCGNW         OFF          [  0]   ***   
       FC_FIELD             IFINFC              0             x 10-6  
       FD_CALTYPE           IFDCAL         GRADONLY     [  0]   ***   
       FD_PROJECT           IFDPRJ         OFF          [  1]   ***   
       FD_STEPSIZE          IDISFD              0            10-4 bohr
       FD_USEGROUP          IFDGRP         FULL         [  0]   ***   
       FILE_RECSIZ          IFLREC              4096           words  
       FINITE_PERT          IFIPER              0             x 10-6  
       FIXGEOM              IFIXGM         OFF          [  0]   ***   
       FOCK                 IFOCK          AO           [  1]   ***   
       FREQ_ALGORI          IVIALG         STANDARD     [  0]   ***   
       FROZEN_CORE          IFROCO         OFF          [  0]   ***   
       FROZEN_VIRT          IFROVI         OFF          [  0]   ***   
       GAMMA_ABCD           IGABCD         STORE        [  0]   ***   
       GAMMA_ABCI           IGABCI         STORE        [  0]   ***   
       GENBAS_1             IGNBS1              0               ***   
       GENBAS_2             IGNBS2              0               ***   
       GENBAS_3             IGNBS3              0               ***   
       GENBAS_4             IGNBS4              0               ***   
       GEO_CONV             ICONTL              5              H/bohr 
       GEO_MAXCYC           IOPTCY             50               ***   
       GEO_MAXSTEP          IMXSTP            300            millibohr
       GEO_METHOD           INR            SINGLE_POINT [  5]   ***   
       GIAO                 IGIAO          OFF          [  1]   ***   
       GIMIC                IGIMIC         OFF          [  0]   ***   
       GRID                 IGRID          OFF          [  0]   ***   
       GRID_ALGO            IGALGO         SERIAL       [  0]   ***   
       GUESS                IGUESS            MOREAD    [  0]   ***   
       HBAR                 IHBAR              OFF      [  0]   ***   
       HESS_TYPE            IHESTP         SCF          [  0]   ***   
       HF2_FILE             IHF2Fl         USE          [  1]   ***   
       HFSTABILITY          ISTABL         OFF          [  0]   ***   
       INCORE               INCORE             OFF      [  0]   ***   
       INPUT_MRCC           IMRCC          ON           [  1]   ***   
       INTEGRALS            INTTYP             VMOL     [  1]   ***   
       JODA_PRINT           IJPRNT              0               ***   
       LINDEP_TOL           ILINDP              8               ***   
       LINEQ_CONV           IZTACN          10D-  7           cycles  
       LINEQ_EXPOR          ILMAXD              5               ***   
       LINEQ_MAXCY          ILMAXC             50               ***   
       LINEQ_TYPE           ILTYPE         DIIS         [  1]   ***   
       LOCK_ORBOCC          ILOCOC             OFF      [  0]   ***   
       MEMORY_SIZE          IMEMSZ         100000000           words  
       MEM_UNIT             IMEMU          INTEGERWORDS [  0]   ***   
       MRCC                 IMRCCC         OFF          [  0]   ***   
       MULTIPLICTY          IMULTP              1               ***   
       NEGEVAL              IDIE             ABORT      [  0]   ***   
       NEWNORM              INEWNO         OFF          [  0]   ***   
       NON-HF               INONHF             OFF      [  0]   ***   
       NTOP_TAMP            ITOPT2             15               ***   
       NUC_MODEL            INUCMO         POINT        [  0]   ***   
       OCCUPATION           IOCCU   ESTIMATED BY SCF 
       OPEN-SHELL           IOPEN          SPIN-ORBITAL [  0]   ***   
       ORBITALS             IORBTP           STANDARD   [  0]   ***   
       PARALLEL             IPARAL         ON           [  1]   ***   
       PARA_INT             IPINTS         ON           [  1]   ***   
       PARA_PRINT           IPPRIN              0               ***   
       PERT_ORB             IPTORB         STANDARD     [  0]   ***   
       POINTS               IGRDFD              0               ***   
       PRINT                IPRNT               0               ***   
       PROPS                IPROPS             OFF      [  0]   ***   
       PROP_INTEGR          IINTYP         INTERNAL     [  0]   ***   
       PSI                  IPSI           OFF          [  0]   ***   
       QUARTIC              IQUART         OFF          [  0]   ***   
       RAMAN_INT            IRAMIN         OFF          [  0]   ***   
       RAMAN_ORB            IRAMRE         UNRELAXED    [  0]   ***   
       RDO                  IRDOFM             OFF      [  0]   ***   
       REFERENCE            IREFNC             RHF      [  0]   ***   
       RELATIVIST           IRELAT         OFF          [  0]   ***   
       RELAX_DENS           IRDENS             OFF      [  0]   ***   
       RESET_FLAGS          IRESET             OFF      [  0]   ***   
       RESTART_CC           ICCRES         OFF          [  0]   ***   
       ROT_EVEC             ROTVEC              0               ***   
       SAVE_INTS            ISVINT             OFF      [  0]   ***   
       SCALE_ON             ISTCRT              0               ***   
       SCF_CONV             ISCFCV          10D-  7             ***   
       SCF_DAMPING          IDAMP               0             x 10-3  
       SCF_EXPORDE          IRPPOR              6               ***   
       SCF_EXPSTAR          IRPPLS              8               ***   
       SCF_EXTRAPO          IRPP                ON      [  1]   ***   
       SCF_MAXCYC           ISCFCY            150              cycles 
       SCF_NOSTOP           ISCFST         OFF          [  0]   ***   
       SCF_PRINT            ISCFPR              0               ***   
       SD_FIELD             IFINSD              0             x 10-6  
       SEQUENCE             ISEQUE         OFF          [  0]   ***   
       SOPERT               IPERSO         OFF          [  0]   ***   
       SPHERICAL            IDFGHI             ON       [  1]   ***   
       SPINORBIT            ISOCAL         OFF          [  0]   ***   
       SPINROTATIO          ISRCON         OFF          [  0]   ***   
       SPIN_FLIP            ISPFLP         OFF          [  0]   ***   
       SPIN_ORBIT           ISPORB         OFF          [  0]   ***   
       SPIN_SCAL            ISCSMP         OFF          [  0]   ***   
       SUBGROUP             ISUBGP         DEFAULT      [  0]   ***   
       SUBGRPAXIS           ISBXYZ         X            [  0]   ***   
       SYMMETRY             ISYM            OFF         [  1]   ***   
       SYM_CHECK            ISYMCK         OVERRIDE     [  1]   ***   
       T3_EXTRAPOL          IT3EXT         OFF          [  0]   ***   
       TAMP_SUM             IEVERY              0               ***   
       TESTSUITE            ITESTS         OFF          [  0]   ***   
       THERMOCH             ITHERM         OFF          [  0]   ***   
       TOL_CHOLESK          ITOLCH          10D-  4             ***   
       TRANGRAD             IRESRM         OFF          [  0]   ***   
       TRANS_INV            ITRAIN         USE          [  0]   ***   
       TREAT_PERT           ITREAT         SIMULTANEOUS [  0]   ***   
       UIJ_THRESHO          IUIJTH              1               ***   
       UNITS                IUNITS         ANGSTROM     [  0]   ***   
       UNOS                 IUNOS          OFF          [  0]   ***   
       UPDATE_HESS          IHUPDT         ON           [  1]   ***   
       VIBPHASE             ISETPH         STANDARD     [  0]   ***   
       VIBRATION            IVIB              NO        [  0]   ***   
       VIB_ALGORIT          IGEALG         STANDARD     [  0]   ***   
       VNATORB              IVNORB         OFF          [  0]   ***   
       VTRAN                IVTRAN         FULL/PARTIAL [  0]   ***   
       XFIELD               IXEFLD              0             x 10-6  
       XFORM_TOL            IXFTOL          10D- 11             ***   
       YFIELD               IYEFLD              0             x 10-6  
       ZFIELD               IZEFLD              0             x 10-6  
    -------------------------------------------------------------------
  @GETXYZ-I,     5 atoms read from ZMAT.
  1  C          6    12.00000
  2  H          1     1.00783
  3  H          1     1.00783
  4  H          1     1.00783
  5  H          1     1.00783
  1  C          6    12.00000
  2  H          1     1.00783
  3  H          1     1.00783
  4  H          1     1.00783
  5  H          1     1.00783
 factor:   60.199719999999999     
   Rotational constants (in cm-1): 
          5.2827152700             5.2827152700             5.2827152700
   Rotational constants (in MHz): 
     158371.8417567255        158371.8417567255        158371.8417567255
********************************************************************************
   The full molecular point group is T d .
   The largest Abelian subgroup of the full molecular point group is C2v .
   The computational point group is C1  .
********************************************************************************
 ----------------------------------------------------------------
 Z-matrix   Atomic            Coordinates (in bohr)
  Symbol    Number           X              Y              Z
 ----------------------------------------------------------------
     C         6         0.00000000     0.00000000     0.00000000
     H         1         1.68130331     0.00000000     1.18886097
     H         1        -1.68130331     0.00000000     1.18886097
     H         1         0.00000000    -1.68130331    -1.18886097
     H         1         0.00000000     1.68130331    -1.18886097
 ----------------------------------------------------------------
   Interatomic distance matrix (Angstroms) 

                 C             H             H             H             H    
                [ 1]        [ 2]        [ 3]        [ 4]        [ 5]
  C    [ 1]     0.00000
  H    [ 2]     1.08966     0.00000
  H    [ 3]     1.08966     1.77941     0.00000
  H    [ 4]     1.08966     1.77941     1.77941     0.00000
  H    [ 5]     1.08966     1.77941     1.77941     1.77941     0.00000
   Rotational constants (in cm-1): 
          5.2827152700             5.2827152700             5.2827152700
   Rotational constants (in MHz): 
     158371.8417567255        158371.8417567255        158371.8417567255
  There are  185 basis functions.
 @GEOPT-W, Archive file not created for single-point calculation.
  @CHECKOUT-I, Total execution time (CPU/WALL):        0.64/       0.77 seconds.
--executable xjoda finished with status     0 in        0.98 seconds (walltime).
 --invoking executable--
/usr/local/cfour/bin/xvmol
 Serial version of molecule started
********************************************************************************
                    Input from MOL file
********************************************************************************
INTGRL        1    0    1    0    0    0    0    0    0                         
         *** CFOUR Program System (Release V0.1) ***                            
CFOUR input file for CASINO with sf-orbitals                                    
    5    0            0.10E-08              0    0                              
   9999.00      3.00                                                            
          6.00000000    1    4    6    0    0    5                              
C #1   0.000000000000000   0.000000000000000   0.000000000000000                
   11    1                                                                      
   312100.00000000000        5.6699999999999999E-006                            
   46740.000000000000        4.4100000000000001E-005                            
   10640.000000000000        2.3190000000000000E-004                            
   3013.0000000000000        9.7897000000000001E-004                            
   982.79999999999995        3.5516300000000001E-003                            
   354.80000000000001        1.1440610000000000E-002                            
   138.40000000000001        3.2998550000000001E-002                            
   57.350000000000001        8.4053470000000005E-002                            
   24.920000000000002       0.18067612999999999                                 
   11.230000000000000       0.30491140000000000                                 
   5.2009999999999996       0.34141569999999999                                 
    1    1                                                                      
   2.4260000000000002        1.0000000000000000                                 
    1    1                                                                      
  0.96730000000000005        1.0000000000000000                                 
    1    1                                                                      
  0.44560000000000000        1.0000000000000000                                 
    1    1                                                                      
  0.19710000000000000        1.0000000000000000                                 
    1    1                                                                      
   8.6349999999999996E-002   1.0000000000000000                                 
    3    1                                                                      
   60.043438279533717       0.11407461847341316                                 
   22.167505485221010       0.10668188273112433                                 
   4.8023959698887424        15.216852924688135                                 
    1    1                                                                      
   1.4833907695011570        1.0000000000000000                                 
    1    1                                                                      
  0.46178952710355969        1.0000000000000000                                 
    1    1                                                                      
  0.30249228070031442        1.0000000000000000                                 
    1    1                                                                      
   9.0284122197480249E-002   1.0000000000000000                                 
          1.00000000    1    4    8    0    0    4                              
H #2   1.681303306460232   0.000000000000000   1.188860969229394                
    8    1                                                                      
   13940.799999999999        3.0100000000000000E-006                            
   3471.4299999999998        5.4399999999999996E-006                            
   1903.1800000000001        1.7850000000000000E-005                            
   623.28599999999994        7.1950000000000001E-005                            
   290.36000000000001        1.2055000000000000E-004                            
   126.58499999999999        5.2526999999999999E-004                            
   44.695500000000003        2.0138399999999998E-003                            
   16.003799999999998        6.8708600000000003E-003                            
    1    1                                                                      
   6.0805600000000002        1.0000000000000000                                 
    1    1                                                                      
   2.4762200000000001        1.0000000000000000                                 
    1    1                                                                      
   1.0757099999999999        1.0000000000000000                                 
    1    1                                                                      
  0.48968200000000001        1.0000000000000000                                 
    1    1                                                                      
  0.22978599999999999        1.0000000000000000                                 
    1    1                                                                      
  0.10996549999999999        1.0000000000000000                                 
    1    1                                                                      
   5.2323000000000001E-002   1.0000000000000000                                 
    3    1                                                                      
   10.178704699742342        5.9884370424923472E-004                            
   2.3952640718028237       -9.8094243397848932E-002                            
   1.0486496863195751       0.94847150361269594                                 
    1    1                                                                      
  0.72018956988162897        1.0000000000000000                                 
    1    1                                                                      
  0.33281514997841094        1.0000000000000000                                 
    1    1                                                                      
  0.12166473257337672        1.0000000000000000                                 
          1.00000000    1    4    8    0    0    4                              
H #3  -1.681303306460232   0.000000000000000   1.188860969229394                
    8    1                                                                      
   13940.799999999999        3.0100000000000000E-006                            
   3471.4299999999998        5.4399999999999996E-006                            
   1903.1800000000001        1.7850000000000000E-005                            
   623.28599999999994        7.1950000000000001E-005                            
   290.36000000000001        1.2055000000000000E-004                            
   126.58499999999999        5.2526999999999999E-004                            
   44.695500000000003        2.0138399999999998E-003                            
   16.003799999999998        6.8708600000000003E-003                            
    1    1                                                                      
   6.0805600000000002        1.0000000000000000                                 
    1    1                                                                      
   2.4762200000000001        1.0000000000000000                                 
    1    1                                                                      
   1.0757099999999999        1.0000000000000000                                 
    1    1                                                                      
  0.48968200000000001        1.0000000000000000                                 
    1    1                                                                      
  0.22978599999999999        1.0000000000000000                                 
    1    1                                                                      
  0.10996549999999999        1.0000000000000000                                 
    1    1                                                                      
   5.2323000000000001E-002   1.0000000000000000                                 
    3    1                                                                      
   10.178704699742342        5.9884370424923472E-004                            
   2.3952640718028237       -9.8094243397848932E-002                            
   1.0486496863195751       0.94847150361269594                                 
    1    1                                                                      
  0.72018956988162897        1.0000000000000000                                 
    1    1                                                                      
  0.33281514997841094        1.0000000000000000                                 
    1    1                                                                      
  0.12166473257337672        1.0000000000000000                                 
          1.00000000    1    4    8    0    0    4                              
H #4   0.000000000000000  -1.681303306460232  -1.188860969229394                
    8    1                                                                      
   13940.799999999999        3.0100000000000000E-006                            
   3471.4299999999998        5.4399999999999996E-006                            
   1903.1800000000001        1.7850000000000000E-005                            
   623.28599999999994        7.1950000000000001E-005                            
   290.36000000000001        1.2055000000000000E-004                            
   126.58499999999999        5.2526999999999999E-004                            
   44.695500000000003        2.0138399999999998E-003                            
   16.003799999999998        6.8708600000000003E-003                            
    1    1                                                                      
   6.0805600000000002        1.0000000000000000                                 
    1    1                                                                      
   2.4762200000000001        1.0000000000000000                                 
    1    1                                                                      
   1.0757099999999999        1.0000000000000000                                 
    1    1                                                                      
  0.48968200000000001        1.0000000000000000                                 
    1    1                                                                      
  0.22978599999999999        1.0000000000000000                                 
    1    1                                                                      
  0.10996549999999999        1.0000000000000000                                 
    1    1                                                                      
   5.2323000000000001E-002   1.0000000000000000                                 
    3    1                                                                      
   10.178704699742342        5.9884370424923472E-004                            
   2.3952640718028237       -9.8094243397848932E-002                            
   1.0486496863195751       0.94847150361269594                                 
    1    1                                                                      
  0.72018956988162897        1.0000000000000000                                 
    1    1                                                                      
  0.33281514997841094        1.0000000000000000                                 
    1    1                                                                      
  0.12166473257337672        1.0000000000000000                                 
          1.00000000    1    4    8    0    0    4                              
H #5   0.000000000000000   1.681303306460232  -1.188860969229394                
    8    1                                                                      
   13940.799999999999        3.0100000000000000E-006                            
   3471.4299999999998        5.4399999999999996E-006                            
   1903.1800000000001        1.7850000000000000E-005                            
   623.28599999999994        7.1950000000000001E-005                            
   290.36000000000001        1.2055000000000000E-004                            
   126.58499999999999        5.2526999999999999E-004                            
   44.695500000000003        2.0138399999999998E-003                            
   16.003799999999998        6.8708600000000003E-003                            
    1    1                                                                      
   6.0805600000000002        1.0000000000000000                                 
    1    1                                                                      
   2.4762200000000001        1.0000000000000000                                 
    1    1                                                                      
   1.0757099999999999        1.0000000000000000                                 
    1    1                                                                      
  0.48968200000000001        1.0000000000000000                                 
    1    1                                                                      
  0.22978599999999999        1.0000000000000000                                 
    1    1                                                                      
  0.10996549999999999        1.0000000000000000                                 
    1    1                                                                      
   5.2323000000000001E-002   1.0000000000000000                                 
    3    1                                                                      
   10.178704699742342        5.9884370424923472E-004                            
   2.3952640718028237       -9.8094243397848932E-002                            
   1.0486496863195751       0.94847150361269594                                 
    1    1                                                                      
  0.72018956988162897        1.0000000000000000                                 
    1    1                                                                      
  0.33281514997841094        1.0000000000000000                                 
    1    1                                                                      
  0.12166473257337672        1.0000000000000000                                 
FINISH                                                                          

********************************************************************************
 One- and two-electron integrals over symmetry-adapted AOs are calculated.

  Spherical harmonics are used.
  
  Integrals less than  0.10E-13 are neglected.

   Basis function not normalized: 
   Center (as ordered in MOL file):   1
   Angular Momentum type          : s
   Offset within angular momentum :  1
   <chi|chi>                      :    1.1696536752
   Basis function not normalized: 
   Center (as ordered in MOL file):   1
   Angular Momentum type          : f
   Offset within angular momentum :  1
   <chi|chi>                      :    0.0655468437
   Basis function not normalized: 
   Center (as ordered in MOL file):   2
   Angular Momentum type          : s
   Offset within angular momentum :  1
   <chi|chi>                      :  111.0545852328
   Basis function not normalized: 
   Center (as ordered in MOL file):   2
   Angular Momentum type          : f
   Offset within angular momentum :  1
   <chi|chi>                      :    1.1314235094
   Basis function not normalized: 
   Center (as ordered in MOL file):   3
   Angular Momentum type          : s
   Offset within angular momentum :  1
   <chi|chi>                      :  111.0545852328
   Basis function not normalized: 
   Center (as ordered in MOL file):   3
   Angular Momentum type          : f
   Offset within angular momentum :  1
   <chi|chi>                      :    1.1314235094
   Basis function not normalized: 
   Center (as ordered in MOL file):   4
   Angular Momentum type          : s
   Offset within angular momentum :  1
   <chi|chi>                      :  111.0545852328
   Basis function not normalized: 
   Center (as ordered in MOL file):   4
   Angular Momentum type          : f
   Offset within angular momentum :  1
   <chi|chi>                      :    1.1314235094
   Basis function not normalized: 
   Center (as ordered in MOL file):   5
   Angular Momentum type          : s
   Offset within angular momentum :  1
   <chi|chi>                      :  111.0545852328
   Basis function not normalized: 
   Center (as ordered in MOL file):   5
   Angular Momentum type          : f
   Offset within angular momentum :  1
   <chi|chi>                      :    1.1314235094
  Nuclear repulsion energy :   13.4395250729 a.u.
  required memory for a1 array               5029284  words 
  required memory for a2 array               2102540  words 
 @GETMEM-I,  Allocated      69 MB of main memory.
  @MOLECU-I, One electron integrals (CPU/WALL):        1.58/       2.00 seconds.
  @TWOEL-I,  124454382 integrals of symmetry type  I I I I
  @TWOEL-I, Total number of 2-e integrals  124454382.
  @MOLECU-I, Two electron integrals (CPU/WALL):     2529.24/    2473.05 seconds.
  @CHECKOUT-I, Total execution time (CPU/WALL):     2537.82/    2482.70 seconds.
--executable xvmol finished with status     0 in     2482.82 seconds (walltime).
 --invoking executable--
/usr/local/cfour/bin/xvmol2ja
 @GETMEM-I,  Allocated     762 MB of main memory.
  @CHECKOUT-I, Total execution time (CPU/WALL):        0.07/       0.04 seconds.
--executable xvmol2ja finished with status     0 in        0.22 seconds (walltime).
 --invoking executable--
/usr/local/cfour/bin/xvscf
  There are  185 functions in the AO basis.

  There are 1 irreducible representations.

       Irrep        # of functions
         1                185


  Parameters for SCF calculation: 
        SCF reference function:  RHF  
  Maximum number of iterations:  150
     Full symmetry point group: T d 
     Computational point group: C1  
        Initial density matrix: MOREAD                 
     SCF convergence tolerance: 10**(- 7)
  DIIS convergence acceleration:  ON
          Latest start for DIIS:   8
                     DIIS order:   6

  Memory information:    2297925 words required.
  Fock matrices are constructed from AO integral file.
 @GETMEM-I,  Allocated      17 MB of main memory.
  Initialization and symmetry analysis required      0.021 seconds.

  @INITGES-I, Occupancies from core Hamiltonian:

          Alpha population by irrep:   5
           Beta population by irrep:   5


 total no. of electrons in initial guess :   0.0000000000000000     
  --------------------------------------------------------------------
  Iteration         Total Energy            Largest Density Difference
  --------------------------------------------------------------------
       0            13.439525072866369              0.0000000000D+00
       1           -36.738382721413345              0.3050761145D+01
       2           -39.410237489683816              0.3230101535D+01
       3           -39.420978486699539              0.2122770148D+01
       4           -39.421095677587985              0.6594803556D-01
       5           -39.421099377739857              0.3222620385D-02
       6           -39.421099454577394              0.1099641387D-02
       7           -39.421099454738339              0.1802736575D-03
       8           -39.421099454739888              0.1262693745D-04
       9           -39.421099454738012              0.2220434410D-05

  SCF has converged.

 Density matrix saved to file den.dat
 total electron number:   9.9999999999999751     
     E(SCF)=       -39.421099454739199              0.7932653912D-07

  Eigenvector printing suppressed.

 @PUTMOS-I, Writing converged MOs to NEWMOS. 
 @PUTMOS-I, Symmetry   1 Full Blocks 46 Partial Blocksize   1



  ORBITAL EIGENVALUES (ALPHA)  (1H = 27.2113838 eV)

       MO #        E(hartree)               E(eV)           FULLSYM    COMPSYM
       ----   --------------------   --------------------   -------   ---------
    1     1         -11.8868710326        -323.4582100817      A1         A (1)
    2     2          -1.1823653552         -32.1737974963      A1         A (1)
    3     3          -0.5525298405         -15.0351015629      T2         A (1)
    4     4          -0.5525298405         -15.0351015629      T2         A (1)
    5     5          -0.5525298405         -15.0351015629      T2         A (1)
  +++++++++++++++++++++++++++++++++++++++++++++++++++++++++++++++++++++++++++++
    6     6           0.0473345068           1.2880374316      A1         A (1)
    7     7           0.1072491681           2.9183982788      T2         A (1)
    8     8           0.1072491681           2.9183982788      T2         A (1)
    9     9           0.1072491681           2.9183982788      T2         A (1)
   10    10           0.2364124624           6.4331102529      A1         A (1)
   11    11           0.2905325441           7.9057925698      A1         A (1)
   12    12           0.3380544826           9.1989302775      T2         A (1)
   13    13           0.3380544826           9.1989302775      T2         A (1)
   14    14           0.3380544826           9.1989302775      T2         A (1)
   15    15           0.3456250461           9.4049357877      T1         A (1)
   16    16           0.3456250461           9.4049357877      T1         A (1)
   17    17           0.3456250461           9.4049357877      T1         A (1)
   18    18           0.3801924829          10.3455635775      T2         A (1)
   19    19           0.3801924829          10.3455635775      T2         A (1)
   20    20           0.3801924829          10.3455635775      T2         A (1)
   21    21           0.4218721943          11.4797262023       E         A (1)
   22    22           0.4218721943          11.4797262023       E         A (1)
   23    23           0.4303101516          11.7093346954      T2         A (1)
   24    24           0.4303101516          11.7093346955      T2         A (1)
   25    25           0.4303101516          11.7093346956      T2         A (1)
   26    26           0.4952531778          13.4765243083      A1         A (1)
   27    27           0.5037605048          13.7080204506      T2         A (1)
   28    28           0.5037605049          13.7080204506      T2         A (1)
   29    29           0.5037605049          13.7080204507      T2         A (1)
   30    30           0.5048474341          13.7375973005      T1         A (1)
   31    31           0.5048474341          13.7375973005      T1         A (1)
   32    32           0.5048474341          13.7375973005      T1         A (1)
   33    33           0.5058448538          13.7647384697       E         A (1)
   34    34           0.5058448538          13.7647384697       E         A (1)
   35    35           0.6284935049          17.1021779892      A1         A (1)
   36    36           0.6601535572          17.9636918248      T1         A (1)
   37    37           0.6601535572          17.9636918248      T1         A (1)
   38    38           0.6601535572          17.9636918248      T1         A (1)
   39    39           0.6720715643          18.2879972891      T2         A (1)
   40    40           0.6720715643          18.2879972892      T2         A (1)
   41    41           0.6720715643          18.2879972892      T2         A (1)
   42    42           0.6725206167          18.3002166278      A1         A (1)
   43    43           0.7735152612          21.0484206623      T2         A (1)
   44    44           0.7735152612          21.0484206623      T2         A (1)
   45    45           0.7735152612          21.0484206623      T2         A (1)
   46    46           0.7767208644          21.1356495627      T1         A (1)
   47    47           0.7767208644          21.1356495627      T1         A (1)
   48    48           0.7767208644          21.1356495627      T1         A (1)
   49    49           0.7919763416          21.5507722073      A1         A (1)
   50    50           0.8024060903          21.8345801036      A2         A (1)
   51    51           0.9401090351          25.5816677874      T2         A (1)
   52    52           0.9401090351          25.5816677874      T2         A (1)
   53    53           0.9401090351          25.5816677874      T2         A (1)
   54    54           1.1021171811          29.9901336286      T2         A (1)
   55    55           1.1021171811          29.9901336288      T2         A (1)
   56    56           1.1021171811          29.9901336289      T2         A (1)
   57    57           1.1330851672          30.8328153850      T1         A (1)
   58    58           1.1330851672          30.8328153850      T1         A (1)
   59    59           1.1330851672          30.8328153850      T1         A (1)
   60    60           1.2223058589          33.2606338722       E         A (1)
   61    61           1.2223058589          33.2606338722       E         A (1)
   62    62           1.2375072288          33.6742841813      T2         A (1)
   63    63           1.2375072288          33.6742841814      T2         A (1)
   64    64           1.2375072288          33.6742841814      T2         A (1)
   65    65           1.2996264059          35.3646329525      A1         A (1)
   66    66           1.3490659376          36.7099510260      T1         A (1)
   67    67           1.3490659376          36.7099510260      T1         A (1)
   68    68           1.3490659376          36.7099510260      T1         A (1)
   69    69           1.3565434886          36.9134255367      A1         A (1)
   70    70           1.4865487939          40.4510497967       E         A (1)
   71    71           1.4865487939          40.4510497967       E         A (1)
   72    72           1.5198799452          41.3580365495      A1         A (1)
   73    73           1.5479878343          42.1228911074      T2         A (1)
   74    74           1.5479878343          42.1228911074      T2         A (1)
   75    75           1.5479878343          42.1228911075      T2         A (1)
   76    76           1.5945582067          43.3901353857      T1         A (1)
   77    77           1.5945582067          43.3901353857      T1         A (1)
   78    78           1.5945582067          43.3901353857      T1         A (1)
   79    79           1.6586867603          45.1351620714      T2         A (1)
   80    80           1.6586867603          45.1351620714      T2         A (1)
   81    81           1.6586867603          45.1351620714      T2         A (1)
   82    82           1.7479832284          47.5650425379      T1         A (1)
   83    83           1.7479832284          47.5650425379      T1         A (1)
   84    84           1.7479832284          47.5650425379      T1         A (1)
   85    85           1.7780166481          48.3822934482      T2         A (1)
   86    86           1.7780166481          48.3822934482      T2         A (1)
   87    87           1.7780166481          48.3822934482      T2         A (1)
   88    88           1.8268319682          49.7106258606      A1         A (1)
   89    89           1.9855350188          54.0291554847      A2         A (1)
   90    90           2.3422986352          63.7371871838      A1         A (1)
   91    91           2.6135230562          71.1175790036      T1         A (1)
   92    92           2.6135230562          71.1175790037      T1         A (1)
   93    93           2.6135230562          71.1175790037      T1         A (1)
   94    94           2.7061305486          73.6375570226      T2         A (1)
   95    95           2.7061305486          73.6375570226      T2         A (1)
   96    96           2.7061305486          73.6375570227      T2         A (1)
   97    97           2.7326419961          74.3589701967      A1         A (1)
   98    98           2.8411221551          77.3108654396      T2         A (1)
   99    99           2.8411221551          77.3108654396      T2         A (1)
  100   100           2.8411221551          77.3108654397      T2         A (1)
  101   101           3.2041920790          87.1905004921      T2         A (1)
  102   102           3.2041920790          87.1905004922      T2         A (1)
  103   103           3.2041920790          87.1905004922      T2         A (1)
  104   104           3.2167524032          87.5322842955      A1         A (1)
  105   105           3.2305294813          87.9071776564       E         A (1)
  106   106           3.2305294813          87.9071776564       E         A (1)
  107   107           3.4364019161          93.5092514960      A1         A (1)
  108   108           3.5016591810          95.2849919796      T1         A (1)
  109   109           3.5016591810          95.2849919796      T1         A (1)
  110   110           3.5016591810          95.2849919797      T1         A (1)
  111   111           3.5123079356          95.5747593281      T2         A (1)
  112   112           3.5123079356          95.5747593282      T2         A (1)
  113   113           3.5123079356          95.5747593283      T2         A (1)
  114   114           3.6173901302          98.4341912575      T2         A (1)
  115   115           3.6173901302          98.4341912575      T2         A (1)
  116   116           3.6173901302          98.4341912575      T2         A (1)
  117   117           3.6764984107         100.0426093668       E         A (1)
  118   118           3.6764984107         100.0426093669       E         A (1)
  119   119           3.7368085612         101.6837320178      T1         A (1)
  120   120           3.7368085612         101.6837320178      T1         A (1)
  121   121           3.7368085612         101.6837320178      T1         A (1)
  122   122           3.7803782754         102.8693242354      T2         A (1)
  123   123           3.7803782754         102.8693242354      T2         A (1)
  124   124           3.7803782754         102.8693242354      T2         A (1)
  125   125           3.9057842432         106.2817941589      T1         A (1)
  126   126           3.9057842432         106.2817941589      T1         A (1)
  127   127           3.9057842432         106.2817941589      T1         A (1)
  128   128           3.9345428224         107.0643548939      A2         A (1)
  129   129           4.2617415049         115.9678838293      A1         A (1)
  130   130           4.5635402832         124.1802462223      A1         A (1)
  131   131           6.4589817883         175.7578325242      T2         A (1)
  132   132           6.4589817883         175.7578325242      T2         A (1)
  133   133           6.4589817883         175.7578325242      T2         A (1)
  134   134           6.5996298158         179.5850599842      T1         A (1)
  135   135           6.5996298158         179.5850599842      T1         A (1)
  136   136           6.5996298158         179.5850599843      T1         A (1)
  137   137           6.7092278775         182.5673749089      T2         A (1)
  138   138           6.7092278775         182.5673749090      T2         A (1)
  139   139           6.7092278775         182.5673749090      T2         A (1)
  140   140           6.9049096663         187.8921471703      A1         A (1)
  141   141           6.9519758660         189.1728835931       E         A (1)
  142   142           6.9519758660         189.1728835932       E         A (1)
  143   143           7.1405648598         194.3046510894      T1         A (1)
  144   144           7.1405648598         194.3046510894      T1         A (1)
  145   145           7.1405648598         194.3046510894      T1         A (1)
  146   146           7.1994453528         195.9068707821       E         A (1)
  147   147           7.1994453528         195.9068707821       E         A (1)
  148   148           7.3146140888         199.0407714630      T1         A (1)
  149   149           7.3146140888         199.0407714631      T1         A (1)
  150   150           7.3146140888         199.0407714631      T1         A (1)
  151   151           7.3323991113         199.5247265367      A1         A (1)
  152   152           7.3376881983         199.6686499127      T2         A (1)
  153   153           7.3376881983         199.6686499127      T2         A (1)
  154   154           7.3376881983         199.6686499127      T2         A (1)
  155   155           7.4622418602         203.0579274117      A2         A (1)
  156   156           7.4654980099         203.1465317522      T2         A (1)
  157   157           7.4654980099         203.1465317522      T2         A (1)
  158   158           7.4654980099         203.1465317523      T2         A (1)
  159   159           7.7074471131         209.7303016628      A1         A (1)
  160   160           7.7079946837         209.7452018168      T2         A (1)
  161   161           7.7079946837         209.7452018169      T2         A (1)
  162   162           7.7079946837         209.7452018169      T2         A (1)
  163   163           8.0741226825         219.7080513198      A1         A (1)
  164   164           8.1414594050         221.5403767212      T2         A (1)
  165   165           8.1414594050         221.5403767214      T2         A (1)
  166   166           8.1414594050         221.5403767216      T2         A (1)
  167   167           8.3343925642         226.7903549663      T1         A (1)
  168   168           8.3343925642         226.7903549664      T1         A (1)
  169   169           8.3343925642         226.7903549664      T1         A (1)
  170   170          14.2279178781         387.1613343352      A1         A (1)
  171   171          19.7696337807         537.9590927783      A1         A (1)
  172   172          19.8379447427         539.8179285861      T2         A (1)
  173   173          19.8379447427         539.8179285865      T2         A (1)
  174   174          19.8379447428         539.8179285866      T2         A (1)
  175   175          21.3340593914         580.5292785279      T2         A (1)
  176   176          21.3340593914         580.5292785279      T2         A (1)
  177   177          21.3340593914         580.5292785279      T2         A (1)
  178   178          21.3778971958         581.7221658504      T1         A (1)
  179   179          21.3778971958         581.7221658504      T1         A (1)
  180   180          21.3778971958         581.7221658504      T1         A (1)
  181   181          21.6769962424         589.8610648081      A1         A (1)
  182   182          71.1764324323        1936.8092218243      T2         A (1)
  183   183          71.1764324323        1936.8092218244      T2         A (1)
  184   184          71.1764324324        1936.8092218252      T2         A (1)
  185   185          71.4481937533        1944.2042234357      A1         A (1)


  VSCF finished.

  @CHECKOUT-I, Total execution time (CPU/WALL):       83.10/     201.22 seconds.
--executable xvscf finished with status     0 in      201.27 seconds (walltime).
  The final electronic energy is       -39.421099454739199 a.u. 
  This computation required                         2685.67 seconds (walltime).
