[Molden Format]
[Molpro variables]
_NUMVAR=  785.0000000000000    
_AVOGAD= 0.6022136736000000E+24
_BOLTZ= 0.1380658000000000E-22
_CLIGHT=  29979245800.00000    
_EV2006= 0.3674930886769165E-01
_EV= 0.3674932534394180E-01
_ENULL= 0.8854187817000000E-11
_KJOULE= 0.3808798324128737E-03
_KJOULE/MOL= 0.3808798324128737E-03
_CM= 0.4556335267302901E-05
_CM-1= 0.4556335267302901E-05
_DEB2SI= 0.3335641000000000E-29
_AMU2AU=  1822.888390000000    
_KCAL= 0.1593601117815568E-02
_KCAL/MOL= 0.1593601117815568E-02
_KELVIN2006= 0.3166828861084835E-05
_KELVIN= 0.3166814820820034E-05
_JOULE= 0.4359748200000000E-17
_HERTZ2006= 0.1519829850815779E-15
_HERTZ= 0.1519829846011223E-15
_HZ2006= 0.1519829850815779E-15
_HZ= 0.1519829846011223E-15
_JPCAL=  4.184000000000000    
_PLANCK= 0.6626075540000000E-33
_TOA2006= 0.5291772490000000    
_TOA= 0.5291772090000000    
_TOANG2006= 0.5291772490000000    
_TOANG= 0.5291772090000000    
_TORAD= 0.1745329251994330E-01
_TOCM=  219474.6306700000    
_TODEBYE=  2.541580000000000    
_TOEV2006=  27.21139610000000    
_TOE= 0.4803242000000000E-09
_TOEV=  27.21138390000000    
_TOHERTZ2006=  6579683899900000.    
_TOHERTZ=  6579683920700000.    
_TOHZ2006=  6579683899900000.    
_TOHZ=  6579683920700000.    
_TOK2006=  315773.3000000000    
_TOK=  315774.7000000000    
_TOKCAL=  627.5096000000000    
_TOKELVIN2006=  315773.3000000000    
_TOKELVIN=  315774.7000000000    
_TOKJ=  2625.500000000000    
_TOKJOULE=  2625.500000000000    
_TOKG= 0.1660565586000000E-26
_ANG2006=  1.889725988578923    
_ANG=  1.889726131421507    
_ANGSTROM2006=  1.889725988578923    
_ANGSTROM=  1.889726131421507    
_RPAREF=  0.000000000000000    
_RPADISS=  0.000000000000000    
_IGNORE_UNDEF=  2.000000000000000    
_STRICTCHECK=  0.000000000000000    
_SEW_ONEEL=  0.000000000000000    
_CPPDONE=FALSE
_DKROLL_DONE=  0.000000000000000    
_FOCKDONE=TRUE
_GRADONE=FALSE
_HESSDONE=FALSE
_INTDONE=TRUE
_SCFDONE=TRUE
_MODUL_BLOCK=FALSE
_MODUL_CUDA=FALSE
_MODUL_SLATER=FALSE
_MODUL_MRCC=FALSE
_MODUL_NBO6=FALSE
_MODUL_NECI=TRUE
_MODUL_AIMS=TRUE
_MRCC_EXEC=
_FITC_AO_SAVED=FALSE
_FITC_MO_SAVED=FALSE
_SHARED_FS=TRUE
_LSTYP=SEWARD
_INTYP=INTS
_GEOMTYP=ZMAT
_GRADTYP=ALASKA
_DIRECT=FALSE
_DKHO= -1.000000000000000    
_SYNCM=  0.000000000000000    
_BASIS=DEF2-QZVP
_ZORIENT=  1.000000000000000    
_NELEC=  28.00000000000000    
!SPIN=  0.000000000000000    
_QSDSTEP=  0.000000000000000    
_QSDIRC=  0.000000000000000    
_PROGRAM=HF-SCF
_CPUSTEP=  80.35000000000001    
_SYSSTEP=  21.35000000000000    
_WALLSTEP=  201.0600000000000    
!DFSCF=  0.000000000000000    
!SCSGRD=  0.000000000000000    
_BASINP=  610.0000000000000    
_CPUTOT=  160.9000000000000    
_CPUSORT=  18.16999999999999    
_SYSSORT=  15.23000000000000    
_WALLSORT=  141.1499999985099    
_DFTEXFAC=  1.000000000000000    
_DMX=-0.3162642598220951E-04
_DMY= 0.2977480602414151E-02
_DMZ=-0.2997493040671345E-02
_DMX_SCF=-0.3162642598220951E-04
_DMY_SCF= 0.2977480602414151E-02
_DMZ_SCF=-0.2997493040671345E-02
_EHOMO=-0.5286637923824684    
_ELUMO= 0.1555364751686312    
_ENERGY= -217.6084359501561    
_ENUC=  105.7779401022931    
_GRADEXFAC=  9999.000000000000    
_GRADMETHOD=  1.000000000000000    
_NMRMETHOD=  0.000000000000000    
!GRID_FREEZE= -1.000000000000000    
_ITERATIONS=  9.000000000000000    
_LASTNELEC=  28.00000000000000    
_LASTSPIN=  0.000000000000000    
_LASTSYM=  1.000000000000000    
_MPP_PROG=  0.000000000000000    
_NPROC_MPP=  1.000000000000000    
_NPROC_MPPX=  1.000000000000000    
_NPROC_SMP=  1.000000000000000    
_NUMSTEP=  0.000000000000000    
_ORBITAL=  2100.200000000000    
_PI=  3.141592653589793    
_SEIG_MIN= 0.3045723143302970E-03
_SEWPROP=TRUE
_STATUS=  1.000000000000000    
_SYSTOT=  40.17000000000000    
_VERSION=  2012001.000000000    
_WALLTOT=  421.2200000000000    
_DATE=03-Jun-15
_LASTORB=RHF
_MACHINE=Linux-3.13.0-32-generic/kbob-G41MT-S2(x86_64) 64 bit serial version
_OUTPUT=/home/kbob/git/molden2qmc/test/N4/MOLPRO/RHF/QZVP/N4.xml
_PGROUP=C1
_TIME=18:33:29
_LIBMOL=/usr/local/molpro/molpros_2012_1_Linux_x86_64_i8/lib/
!VIBCNT=  0.000000000000000    
!RGHFCNT=  0.000000000000000    
!SURFREC=  0.000000000000000    
!POLYREC=  0.000000000000000    
!DIPREC=  0.000000000000000    
!VSCFREC=  0.000000000000000    
!VCIREC=  0.000000000000000    
!PVCIREC=  0.000000000000000    
!VMP2REC=  0.000000000000000    
!VMCSCFREC=  0.000000000000000    
!VMRCIREC=  0.000000000000000    
!VIBINFO=  0.000000000000000    
!GAREC=  0.000000000000000    
!SCFORB=  21002.00000000000    
!NEWMOL= -1.000000000000000    
!NEWSYM= -1.000000000000000    
_SLFILES=slscratch
_NGSSTO=  9.000000000000000    
_SIN=SIN
_COS=COS
_TAN=TAN
_ACOS=ACOS
_ASIN=ASIN
_ATAN=ATAN
_COSH=COSH
_SINH=SINH
_TANH=TANH
_ABS=ABS
_MOD=MOD
_ERF=ERF
_REFC=REFC
_ERFC=ERFC
_HYPOT=HYPOT
_J0=J0
_J1=J1
_JN=JN
_GAMMA=GAMMA
_LGAMMA=LGAMMA
_Y0=Y0
_Y1=Y1
_YN=YN
_EXP=EXP
_LOG=LOG
_LOG10=LOG10
_SQRT=SQRT
_INT=INT
_NINT=NINT
_MAX=MAX
_MIN=MIN
_COSMO=  0.000000000000000    
_COSMOIT=  0.000000000000000    
_COSMOES=  0.000000000000000    
_COSMOEDS=  0.000000000000000    
_COSMOEC=  0.000000000000000    
_COSMOEDCORR=  0.000000000000000    
_FEPSI=  1.000000000000000    
_SL_IsMM=  0.000000000000000    
_SL_NSYM=  1.000000000000000    
_SL_System_BitSw=  0.000000000000000    
_SL_Unique_atoms=  0.000000000000000    
_SL_GRAD=  0.000000000000000    
_SL_MAXUPD_Hess=  5.000000000000000    
_SL_N_PRINT_COD=  5.000000000000000    
_SL_PRINT_CODES=  0.000000000000000    
_SL_BasType=  0.000000000000000    
_SL_Energy_Pred=  0.000000000000000    
_SL_New_Coords=  0.000000000000000    
_SL_Total_Nuclea=  0.000000000000000    
_SL_Highest_Mltp=  0.000000000000000    
_SL_Ref_Geom=  0.000000000000000    
_SL_Symmetry_ope=  1.000000000000000    
_SL_agrad=  0.000000000000000    
_SL_GrdMax=  0.000000000000000    
_SL_GrdNorm=  0.000000000000000    
_SL_GrdRMS=  0.000000000000000    
!LATTICE= -1.000000000000000    
!NEWLATTICE=  0.000000000000000    
!LATGRAD_VAR=FALSE
!SEW_LATTICE=  1.000000000000000    
!LOCAL=  0.000000000000000    
!SAVEDOM= -1.000000000000000    
!RESTDOM= -1.000000000000000    
!SAVEDOM_HF= -1.000000000000000    
!RESTDOM_HF= -1.000000000000000    
!HESSREC=  0.000000000000000    
!FREQREC=  0.000000000000000    
!NMODREC=  0.000000000000000    
!GTASKS=  0.000000000000000    
!HTASKS=  0.000000000000000    
!THRCHG= 0.1000000000000000    
!DEBUG= -1.000000000000000    
!CFIT_CPHF=  0.000000000000000    
!RDOMAUX_CPHF=  3.000000000000000    
!THRAO_CPHF= 0.1000000000000000E-09
!THRMO_CPHF= 0.1000000000000000E-08
!THROV_CPHF= 0.1000000000000000E-11
!THRSW_CPHF= 0.1000000000000000E-09
!THRPROD_CPHF= 0.1000000000000000E-08
!THRAOPR_CPHF= 0.1000000000000000E-11
!CFIT_SCFGRD=  0.000000000000000    
!RDOMAUX_SCFGRD=  5.000000000000000    
!THRAO_SCFGRD= 0.1000000000000000E-09
!THRMO_SCFGRD= 0.1000000000000000E-08
!THROV_SCFGRD= 0.1000000000000000E-11
!THRSW_SCFGRD= 0.1000000000000000E-09
!THRPROD_SCFGRD= 0.1000000000000000E-08
!THRAOPR_SCFGRD= 0.1000000000000000E-11
!LOCFIT_SCF=  0.000000000000000    
!LOCFIT_MP2= -1.000000000000000    
_RIDOM=  0.000000000000000    
!CC2_METHOD=  0.000000000000000    
_BASIS2006=FALSE
_SVDDEL= -1.000000000000000    
_SVDDELA= -1.000000000000000    
_SVDDELP= -1.000000000000000    
_SVDDELF= -1.000000000000000    
_SVDDELS= -1.000000000000000    
_SVDDEL_ABS= -1.000000000000000    
_SVDDELA_ABS= -1.000000000000000    
_SVDDELP_ABS= -1.000000000000000    
_SVDDELF_ABS= -1.000000000000000    
_SVDDELS_ABS= -1.000000000000000    
_MAXBASIS=  0.000000000000000    
!OPT_CONICAL=  0.000000000000000    
!CLEARSP_JGRID=  0.000000000000000    
_4EXT_NDISKS=  1.000000000000000    
!ZMP=  0.000000000000000    
_MAXIT_ZMP=  500.0000000000000    
_MAXDIS_ZMP=  100.0000000000000    
_ACCU_ZMP=  14.00000000000000    
_SHIFTA_ZMP= -100.0000000000000    
!EMBEDFLAG=  1.000000000000000    
!EMBED=FALSE
!EMBED_F12=FALSE
!EMBEDNUC=  0.000000000000000    
_EMBEDENERGY=  0.000000000000000    
_KSPACETIME=  0.000000000000000    
_RSPACETIME=  0.000000000000000    
!EMBED_DFC=FALSE
!NUM_VOIDS=  0.000000000000000    
_IBODY=  0.000000000000000    
_EMBE_TOTAL=  0.000000000000000    
_EMBE_HF=  0.000000000000000    
_EMBE_CORR=  0.000000000000000    
!EDFT=  0.000000000000000    
_IFASTLATGRAD=  0.000000000000000    
_SINDEX=  0.000000000000000    
GEOMTYP=XYZ
GX1= 0.5200000000000000    
GY1= 0.5300000000000000    
GZ1= 0.5100000000000000    
GX2=-0.5200000000000000    
GY2=-0.5200000000000000    
GZ2= 0.5200000000000000    
GX3=-0.5200000000000000    
GY3= 0.5200000000000000    
GZ3=-0.5200000000000000    
GX4= 0.5200000000000000    
GY4=-0.5200000000000000    
GZ4=-0.5200000000000000    
[Atoms] Angs
N     1    7         0.5200000000        0.5300000000        0.5100000000
N     2    7        -0.5200000000       -0.5200000000        0.5200000000
N     3    7        -0.5200000000        0.5200000000       -0.5200000000
N     4    7         0.5200000000       -0.5200000000       -0.5200000000
[GTO]
  1 0
 s    8  1.00
  0.9072688921D+05  0.7098234589D-04
  0.1359052880D+05  0.5517125164D-03
  0.3092988378D+04  0.2893067845D-02
  0.8759987636D+03  0.1211121215D-01
  0.2857446998D+03  0.4283412781D-01
  0.1031191342D+03  0.1291988090D+00
  0.4012855678D+02  0.3188189200D+00
  0.1652809570D+02  0.5908448854D+00
 s    2  1.00
  0.6939096098D+02  0.9465921318D-01
  0.2042820060D+02  0.9254964993D+00
 s    1  1.00
  0.7129258797D+01  0.1000000000D+01
 s    1  1.00
  0.3132430489D+01  0.1000000000D+01
 s    1  1.00
  0.9875577872D+00  0.1000000000D+01
 s    1  1.00
  0.3876572131D+00  0.1000000000D+01
 s    1  1.00
  0.1490988307D+00  0.1000000000D+01
 p    5  1.00
  0.1500574267D+03 -0.2450051156D-02
  0.3549159948D+02 -0.1948626750D-01
  0.1124786422D+02 -0.9035551901D-01
  0.4090030519D+01 -0.2994468726D+00
  0.1622057315D+01 -0.6967897302D+00
 p    1  1.00
  0.6644226153D+00  0.1000000000D+01
 p    1  1.00
  0.2709977007D+00  0.1000000000D+01
 p    1  1.00
  0.1068874998D+00  0.1000000000D+01
 d    1  1.00
  0.2837000000D+01  0.1000000000D+01
 d    1  1.00
  0.9680000000D+00  0.1000000000D+01
 d    1  1.00
  0.3350000000D+00  0.1000000000D+01
 f    1  1.00
  0.2027000000D+01  0.1000000000D+01
 f    1  1.00
  0.6850000000D+00  0.1000000000D+01
 g    1  1.00
  0.1427000000D+01  0.1000000000D+01
  
  2 0
 s    8  1.00
  0.9072688921D+05  0.7098234589D-04
  0.1359052880D+05  0.5517125164D-03
  0.3092988378D+04  0.2893067845D-02
  0.8759987636D+03  0.1211121215D-01
  0.2857446998D+03  0.4283412781D-01
  0.1031191342D+03  0.1291988090D+00
  0.4012855678D+02  0.3188189200D+00
  0.1652809570D+02  0.5908448854D+00
 s    2  1.00
  0.6939096098D+02  0.9465921318D-01
  0.2042820060D+02  0.9254964993D+00
 s    1  1.00
  0.7129258797D+01  0.1000000000D+01
 s    1  1.00
  0.3132430489D+01  0.1000000000D+01
 s    1  1.00
  0.9875577872D+00  0.1000000000D+01
 s    1  1.00
  0.3876572131D+00  0.1000000000D+01
 s    1  1.00
  0.1490988307D+00  0.1000000000D+01
 p    5  1.00
  0.1500574267D+03 -0.2450051156D-02
  0.3549159948D+02 -0.1948626750D-01
  0.1124786422D+02 -0.9035551901D-01
  0.4090030519D+01 -0.2994468726D+00
  0.1622057315D+01 -0.6967897302D+00
 p    1  1.00
  0.6644226153D+00  0.1000000000D+01
 p    1  1.00
  0.2709977007D+00  0.1000000000D+01
 p    1  1.00
  0.1068874998D+00  0.1000000000D+01
 d    1  1.00
  0.2837000000D+01  0.1000000000D+01
 d    1  1.00
  0.9680000000D+00  0.1000000000D+01
 d    1  1.00
  0.3350000000D+00  0.1000000000D+01
 f    1  1.00
  0.2027000000D+01  0.1000000000D+01
 f    1  1.00
  0.6850000000D+00  0.1000000000D+01
 g    1  1.00
  0.1427000000D+01  0.1000000000D+01
  
  3 0
 s    8  1.00
  0.9072688921D+05  0.7098234589D-04
  0.1359052880D+05  0.5517125164D-03
  0.3092988378D+04  0.2893067845D-02
  0.8759987636D+03  0.1211121215D-01
  0.2857446998D+03  0.4283412781D-01
  0.1031191342D+03  0.1291988090D+00
  0.4012855678D+02  0.3188189200D+00
  0.1652809570D+02  0.5908448854D+00
 s    2  1.00
  0.6939096098D+02  0.9465921318D-01
  0.2042820060D+02  0.9254964993D+00
 s    1  1.00
  0.7129258797D+01  0.1000000000D+01
 s    1  1.00
  0.3132430489D+01  0.1000000000D+01
 s    1  1.00
  0.9875577872D+00  0.1000000000D+01
 s    1  1.00
  0.3876572131D+00  0.1000000000D+01
 s    1  1.00
  0.1490988307D+00  0.1000000000D+01
 p    5  1.00
  0.1500574267D+03 -0.2450051156D-02
  0.3549159948D+02 -0.1948626750D-01
  0.1124786422D+02 -0.9035551901D-01
  0.4090030519D+01 -0.2994468726D+00
  0.1622057315D+01 -0.6967897302D+00
 p    1  1.00
  0.6644226153D+00  0.1000000000D+01
 p    1  1.00
  0.2709977007D+00  0.1000000000D+01
 p    1  1.00
  0.1068874998D+00  0.1000000000D+01
 d    1  1.00
  0.2837000000D+01  0.1000000000D+01
 d    1  1.00
  0.9680000000D+00  0.1000000000D+01
 d    1  1.00
  0.3350000000D+00  0.1000000000D+01
 f    1  1.00
  0.2027000000D+01  0.1000000000D+01
 f    1  1.00
  0.6850000000D+00  0.1000000000D+01
 g    1  1.00
  0.1427000000D+01  0.1000000000D+01
  
  4 0
 s    8  1.00
  0.9072688921D+05  0.7098234589D-04
  0.1359052880D+05  0.5517125164D-03
  0.3092988378D+04  0.2893067845D-02
  0.8759987636D+03  0.1211121215D-01
  0.2857446998D+03  0.4283412781D-01
  0.1031191342D+03  0.1291988090D+00
  0.4012855678D+02  0.3188189200D+00
  0.1652809570D+02  0.5908448854D+00
 s    2  1.00
  0.6939096098D+02  0.9465921318D-01
  0.2042820060D+02  0.9254964993D+00
 s    1  1.00
  0.7129258797D+01  0.1000000000D+01
 s    1  1.00
  0.3132430489D+01  0.1000000000D+01
 s    1  1.00
  0.9875577872D+00  0.1000000000D+01
 s    1  1.00
  0.3876572131D+00  0.1000000000D+01
 s    1  1.00
  0.1490988307D+00  0.1000000000D+01
 p    5  1.00
  0.1500574267D+03 -0.2450051156D-02
  0.3549159948D+02 -0.1948626750D-01
  0.1124786422D+02 -0.9035551901D-01
  0.4090030519D+01 -0.2994468726D+00
  0.1622057315D+01 -0.6967897302D+00
 p    1  1.00
  0.6644226153D+00  0.1000000000D+01
 p    1  1.00
  0.2709977007D+00  0.1000000000D+01
 p    1  1.00
  0.1068874998D+00  0.1000000000D+01
 d    1  1.00
  0.2837000000D+01  0.1000000000D+01
 d    1  1.00
  0.9680000000D+00  0.1000000000D+01
 d    1  1.00
  0.3350000000D+00  0.1000000000D+01
 f    1  1.00
  0.2027000000D+01  0.1000000000D+01
 f    1  1.00
  0.6850000000D+00  0.1000000000D+01
 g    1  1.00
  0.1427000000D+01  0.1000000000D+01
 
 
[MO]
 Sym=      1.1
 Ene=     -15.7489
 Spin= Alpha
 Occup=    2.000000
1 0.28075168074089
2 -0.000211137245793
3 0.18683935010568
4 0.085140380881711
5 0.005658862676753
6 -0.001881154231851
7 0.000885284353980
8 0.001087792352795
9 0.001096769508128
10 0.001079015849726
11 0.000945471769196
12 0.000974303967764
13 0.000920651234797
14 -0.000743478528406
15 -0.000715421431759
16 -0.000759817902535
17 0.000006773739089
18 0.000008454679314
19 0.000005691989156
20 -0.000000207228616
21 0.000002726040539
22 -0.000002518811922
23 0.000045879651555
24 0.000041642324923
25 0.000044008908021
26 0.000001135571181
27 -0.000014842837830
28 0.000013707266649
29 -0.000069270972460
30 -0.000039179477051
31 -0.000055561017660
32 0.000002080443241
33 -0.000007824921644
34 0.000005744478403
35 0.000238360984900
36 0.000267879234357
37 0.000250155367517
38 -0.000006437986237
39 -0.000006792271761
40 -0.000005953067613
41 0.000007132946355
42 0.000005924272581
43 0.000002547715829
44 0.000001504518563
45 0.000003188516246
46 0.000005439162486
47 0.000015983195966
48 0.000058590123718
49 0.000055917956813
50 0.000061456779226
51 -0.000030007383288
52 -0.000033787530450
53 -0.000046815665141
54 -0.000048599516377
55 -0.000041234281108
56 -0.000035637256475
57 0.000046751379909
58 -0.000007886266615
59 -0.000005921650865
60 -0.000009399450583
61 0.000006268589442
62 0.000008073747877
63 0.000006020788528
64 0.000006894405086
65 0.000007939710690
66 0.000007025124047
67 0.000003872000850
68 0.000009981173847
69 0.000006530090270
70 -0.000018675008013
71 -0.000021484309146
72 -0.000016487930724
73 0.26411309594477
74 -0.000194851830478
75 0.17575472165944
76 0.080128007383939
77 0.005185443984160
78 -0.001570725251743
79 0.001048831013319
80 -0.001011060675608
81 -0.001012805955996
82 0.001022341334806
83 -0.000879620283869
84 -0.000871672144689
85 0.000873406425451
86 0.000811344863556
87 0.000853058228408
88 -0.000836717312264
89 0.000005918590746
90 0.000007942099650
91 -0.000006439255558
92 0.000000674937452
93 -0.000000711690084
94 0.000000036752631
95 0.000037521079936
96 -0.000039049263426
97 -0.000036840539587
98 -0.000005555950608
99 0.000001107572605
100 0.000004448378003
101 -0.000046922882248
102 0.000045998490024
103 0.000035954307780
104 -0.000011675596112
105 0.000013886302671
106 -0.000002210706560
107 0.000286033581272
108 -0.000276433457510
109 -0.000299088287937
110 0.000007588608344
111 0.000007711367504
112 -0.000007025482512
113 -0.000006688846458
114 -0.000006421256630
115 0.000004353846599
116 -0.000003492340009
117 -0.000003924628532
118 0.000005071827283
119 0.000016115105402
120 -0.000065775691794
121 -0.000065393404217
122 0.000066350210101
123 0.000050135666983
124 0.000040944443342
125 -0.000036966503174
126 0.000038111683888
127 0.000046790014924
128 -0.000052051644891
129 0.000041297946416
130 -0.000008588491248
131 -0.000010858199665
132 -0.000009206084976
133 0.000007018727251
134 -0.000007318478954
135 0.000008262501664
136 -0.000008296025755
137 -0.000007056595173
138 -0.000007679512549
139 0.000008994427273
140 0.000006092289351
141 0.000010079304848
142 0.000021433433775
143 0.000019286185758
144 -0.000020501919979
145 0.28820664763700
146 -0.000218813329995
147 0.19180513987818
148 0.087386426723886
149 0.005874492943763
150 -0.002023961872866
151 0.000823600464714
152 -0.001126756771991
153 0.001114492196429
154 -0.001124447027875
155 -0.000973775672540
156 0.000985902428840
157 -0.000979151497443
158 0.000727317328725
159 -0.000676670696684
160 0.000694847724656
161 -0.000010598421814
162 0.000012631953731
163 -0.000011972748136
164 -0.000000866117984
165 0.000000945693935
166 -0.000000079575952
167 -0.000046221490080
168 0.000045890136136
169 -0.000047903562868
170 0.000006657185713
171 -0.000008661928060
172 0.000002004742347
173 0.000060373679928
174 -0.000050623938336
175 0.000068195075638
176 0.000014232481941
177 -0.000007924922347
178 -0.000006307559594
179 -0.000238304760126
180 0.000248530908026
181 -0.000220880180059
182 0.000005691507436
183 -0.000006340655937
184 0.000005470075617
185 -0.000005166440137
186 0.000004538433111
187 -0.000002562985989
188 -0.000002469518376
189 0.000003968449508
190 -0.000004775890564
191 0.000016219295212
192 -0.000055315337077
193 0.000053623995885
194 -0.000055836291867
195 0.000036449199505
196 -0.000041719049053
197 0.000045221479583
198 0.000037764112837
199 -0.000030225090962
200 0.000029690766953
201 0.000050422224273
202 -0.000008068692054
203 -0.000005864357725
204 -0.000006320991789
205 -0.000006975631078
206 0.000007717507650
207 -0.000007017904182
208 -0.000006533313649
209 0.000006716818343
210 -0.000006202193911
211 0.000006685747153
212 0.000007487879742
213 0.000003615701684
214 0.000017086476379
215 -0.000019365680477
216 0.000018774297652
217 0.27466133794430
218 -0.000205408310564
219 0.18278162338193
220 0.083305709716820
221 0.005486668880276
222 -0.001766781134373
223 0.000954565731724
224 0.001062365209718
225 -0.001064072602494
226 -0.001060059770179
227 0.000922608024004
228 -0.000912417909047
229 -0.000925781632705
230 -0.000766660893798
231 0.000818499468294
232 0.000744183831877
233 0.000001478660989
234 0.000001027086586
235 -0.000002376271670
236 0.000000478765931
237 -0.000001336225632
238 0.000000857459701
239 -0.000040000422431
240 -0.000043890690206
241 0.000041128869256
242 -0.000001838217319
243 0.000006602938757
244 -0.000004764721438
245 0.000042305613980
246 0.000060164899490
247 -0.000047758324953
248 -0.000004924240740
249 0.000025570379137
250 -0.000020646138396
251 -0.000282049499536
252 -0.000241957513462
253 0.000270415066488
254 -0.000006711330023
255 0.000006860913582
256 0.000006523273534
257 0.000005144879156
258 -0.000004776694646
259 -0.000003955633605
260 0.000003859314935
261 -0.000004428186848
262 -0.000004796256230
263 0.000016144631174
264 0.000060541278334
265 -0.000060693495814
266 -0.000061641811079
267 -0.000053901919082
268 0.000046038267904
269 0.000030615798866
270 -0.000027322729198
271 0.000035390601555
272 0.000052085369031
273 0.000045643589027
274 -0.000007722446726
275 -0.000010594474669
276 -0.000006579356218
277 -0.000007728190751
278 -0.000006621011018
279 -0.000008138214460
280 0.000008615877427
281 -0.000006388015561
282 0.000006352180073
283 0.000010309221641
284 0.000003256183741
285 0.000008301245843
286 -0.000020081756437
287 0.000017453440651
288 0.000021287016366
 Sym=      2.1
 Ene=     -15.7480
 Spin= Alpha
 Occup=    2.000000
1 -0.23117041010133
2 0.000214397390422
3 -0.15401183452218
4 -0.069654854136153
5 -0.006546936597902
6 0.004554043135685
7 0.002740104193055
8 -0.000999913074268
9 -0.000962972739542
10 -0.000984794685287
11 -0.001288238402408
12 -0.000746649884015
13 -0.001173773962629
14 -0.002296010069777
15 -0.000190853866385
16 -0.001878547458194
17 -0.000287670015416
18 -0.000160886813112
19 -0.000258912377452
20 -0.000043024734809
21 0.000063150062092
22 -0.000020125327283
23 -0.000061870427535
24 -0.000156995688871
25 -0.000038267370294
26 0.000171601253555
27 -0.000252789404011
28 0.000081188150456
29 0.000096580098916
30 0.000513410225847
31 -0.000006899628154
32 0.000427930469772
33 -0.000635533382057
34 0.000207602912285
35 0.000255012259844
36 0.001225149006290
37 0.000019439805658
38 -0.000007260400579
39 -0.000011872267079
40 -0.000008547091832
41 -0.000005682418851
42 0.000010724780435
43 0.000019284038759
44 0.000015423268395
45 0.000005203537307
46 -0.000007816911752
47 0.000001944650148
48 0.000122242478585
49 0.000038981840965
50 0.000110959390981
51 0.000230620862704
52 -0.000103073333563
53 -0.000469152206439
54 -0.000394626357817
55 0.000050773705790
56 0.000320284561855
57 -0.000058847583035
58 -0.000071322102854
59 0.000054003868699
60 -0.000047333877761
61 0.000007537672015
62 0.000035479674960
63 -0.000007576486137
64 -0.000014740162164
65 0.000028105117574
66 -0.000000457904683
67 -0.000026363041907
68 0.000151648883587
69 -0.000068501241019
70 0.000020390346359
71 -0.000085307951065
72 0.000000052074609
73 -0.057499042977560
74 0.000052478059924
75 -0.038304735041484
76 -0.017332769282602
77 -0.001597561762793
78 0.001089850728219
79 0.000629936288875
80 0.000214190377476
81 0.000255242889892
82 -0.000258570138476
83 -0.000092797884643
84 0.000428328756986
85 -0.000451397094099
86 -0.001047921993680
87 0.000970060141073
88 -0.001059856135335
89 -0.000034500493543
90 0.000095148018206
91 -0.000104585258214
92 0.000070401318571
93 -0.000032410297730
94 -0.000037991020841
95 0.000022575444777
96 -0.000016662092067
97 0.000100017006626
98 -0.000275787017678
99 0.000128445015540
100 0.000147342002138
101 -0.000137234006556
102 0.000114250269268
103 -0.000392472621044
104 -0.000693188081155
105 0.000320705958308
106 0.000372482122847
107 -0.000317859290844
108 0.000263942628798
109 -0.000910877607309
110 0.000004755182412
111 0.000000636369831
112 -0.000000220116086
113 -0.000001461254316
114 0.000015974497869
115 -0.000014935794077
116 -0.000004918492355
117 -0.000016828277590
118 0.000015231110796
119 -0.000000064157240
120 0.000044683901967
121 -0.000050249735140
122 0.000051832192912
123 -0.000051926747188
124 -0.000371801029296
125 0.000351332712553
126 -0.000008022998191
127 0.000439218123472
128 -0.000420872896618
129 -0.000009967735041
130 0.000080364852101
131 -0.000043870454591
132 -0.000051050154559
133 -0.000017497624672
134 0.000016613481289
135 -0.000006139765669
136 -0.000027242025953
137 0.000003124231602
138 -0.000028238730427
139 -0.000076891261275
140 -0.000064279255775
141 0.000153954984980
142 0.000074435245626
143 -0.000026480920647
144 0.000031712886968
145 0.46177904717395
146 -0.000432294341532
147 0.30765886866038
148 0.13911105526890
149 0.013196042363335
150 -0.009225704862187
151 -0.005646561162295
152 -0.001987502546465
153 0.001949976649658
154 -0.001973443676638
155 -0.002234714031699
156 0.002050071568458
157 -0.002119977950871
158 -0.003365782742744
159 0.002709988315023
160 -0.002923215783826
161 -0.000503562978018
162 0.000465278317195
163 -0.000476371348716
164 0.000019149929768
165 -0.000013592088769
166 -0.000005557840999
167 -0.000175556300976
168 0.000188048114639
169 -0.000151453255463
170 -0.000072660357921
171 0.000050660349723
172 0.000022000008198
173 0.000413077135726
174 -0.000463778070719
175 0.000309655284681
176 -0.000183827334160
177 0.000135594939163
178 0.000048232394997
179 0.001060844939484
180 -0.001181494887208
181 0.000815208375857
182 -0.000018953223049
183 0.000020273648563
184 -0.000020425564318
185 0.000012460137140
186 -0.000016651586566
187 0.000017389326641
188 0.000012968279939
189 -0.000010548367238
190 0.000010014443536
191 -0.000004998820762
192 0.000196920982622
193 -0.000170214320119
194 0.000186201760854
195 -0.000102304907345
196 0.000194215376399
197 -0.000237673737039
198 -0.000161892314658
199 0.000034151097920
200 -0.000012142139840
201 0.000098759601133
202 0.000064591363069
203 0.000029212961743
204 0.000039565581315
205 0.000021684119520
206 -0.000026489175246
207 0.000019661240714
208 0.000013384562537
209 -0.000020018691290
210 0.000012312418212
211 -0.000047638434362
212 -0.000065824054314
213 -0.000003677642330
214 -0.000034476117464
215 0.000062396850638
216 -0.000055470621623
217 -0.19296039075201
218 0.000179187119112
219 -0.12855511753719
220 -0.058142794445836
221 -0.005437156130518
222 0.003709941691922
223 0.002209853843833
224 -0.000835690091224
225 0.000827077279491
226 0.000790904649271
227 -0.001105815354157
228 0.000967613399013
229 0.000552228324905
230 -0.002063835566550
231 0.001526367443665
232 -0.000074105017600
233 -0.000249847978868
234 0.000214729914334
235 0.000110863439752
236 -0.000045518774469
237 -0.000018568631370
238 0.000064087405839
239 0.000142139306212
240 0.000049470522967
241 -0.000018474734218
242 0.000179101227502
243 0.000071733115470
244 -0.000250834342972
245 -0.000472837714839
246 -0.000071028175975
247 -0.000063959535853
248 0.000449064121058
249 0.000177227669557
250 -0.000626291790615
251 -0.001126678655488
252 -0.000194734243961
253 -0.000116125802234
254 -0.000005922146671
255 0.000007017618631
256 0.000010704486978
257 0.000015837709768
258 -0.000020410790457
259 -0.000011202808655
260 -0.000007892316251
261 0.000010995667078
262 -0.000003158767673
263 0.000001745844149
264 0.000113530937992
265 -0.000090556695131
266 -0.000014367930664
267 -0.000382352147615
268 0.000467765638166
269 0.000112822787023
270 0.000230034410676
271 -0.000346271082487
272 -0.000093546185227
273 -0.000043491206438
274 -0.000072508723729
275 -0.000039529215760
276 0.000059433960221
277 -0.000031909475070
278 -0.000006852558478
279 -0.000028439521769
280 -0.000005217991902
281 0.000005872922374
282 -0.000013467546809
283 0.000150605495492
284 -0.000023235211694
285 -0.000081167679314
286 0.000025069280852
287 0.000001314319753
288 0.000080966675583
 Sym=      3.1
 Ene=     -15.7480
 Spin= Alpha
 Occup=    2.000000
1 0.41535855837134
2 -0.000388816057082
3 0.27673468994131
4 0.12512370142266
5 0.011825348126778
6 -0.008156033323644
7 -0.004969001500915
8 0.001753419427580
9 0.001788552137104
10 0.001753434870309
11 0.001745805040573
12 0.002055829194989
13 0.001883403664157
14 0.002071976964992
15 0.003235066879475
16 0.002642469764568
17 0.000390632890831
18 0.000468859664470
19 0.000420390184459
20 -0.000029432830112
21 0.000032512444989
22 -0.000003079614877
23 0.000153920368583
24 0.000119825422001
25 0.000186165473333
26 0.000116643224875
27 -0.000126755552832
28 0.000010112327957
29 -0.000353062911549
30 -0.000204803992039
31 -0.000494166347598
32 0.000292430102117
33 -0.000310084725196
34 0.000017654623079
35 -0.000907524161581
36 -0.000574623768024
37 -0.001240285515335
38 0.000019565727143
39 0.000016333550153
40 0.000018843999764
41 -0.000017971321987
42 -0.000007506378695
43 -0.000004176836137
44 -0.000008278855565
45 -0.000014407378380
46 -0.000021105042528
47 -0.000005048913288
48 -0.000141166288489
49 -0.000182161091424
50 -0.000171747794992
51 0.000208036715265
52 0.000017455503272
53 -0.000106480625111
54 -0.000018642264949
55 0.000226939246695
56 0.000336904471864
57 0.000092018153398
58 0.000004738313305
59 0.000073631096662
60 0.000040131625955
61 -0.000011528718103
62 -0.000004417126095
63 -0.000021040254936
64 -0.000032598637615
65 -0.000007887214132
66 -0.000021971042246
67 -0.000033584630585
68 0.000025261214046
69 -0.000095757236101
70 0.000073212908207
71 0.000016508004699
72 0.000043695862604
73 -0.15659401515057
74 0.000145561820278
75 -0.10432813914007
76 -0.047184164720467
77 -0.004381236099353
78 0.002908741240551
79 0.001711617523089
80 0.000655125245264
81 0.000680794349385
82 -0.000643599920278
83 0.000675952002446
84 0.000981872820743
85 -0.000420030821656
86 0.000861787351916
87 0.002057328259454
88 0.000169232957330
89 0.000149589533031
90 0.000223479223366
91 -0.000079489198968
92 0.000002723755760
93 -0.000059050482260
94 0.000056326726500
95 -0.000119212426993
96 -0.000008955761183
97 0.000058492550612
98 -0.000011217397919
99 0.000231254614934
100 -0.000220037217015
101 0.000399263717916
102 0.000156206797043
103 -0.000136168283794
104 -0.000026936215983
105 0.000582973685000
106 -0.000556037469016
107 0.000957072743067
108 0.000338783690001
109 -0.000346027813413
110 0.000006899788410
111 0.000004144380827
112 -0.000009390538854
113 -0.000022867854102
114 -0.000012085293588
115 -0.000002426198347
116 0.000013610816552
117 0.000006525023235
118 0.000015024928281
119 0.000002108260787
120 -0.000060379092062
121 -0.000106031023038
122 0.000011929133751
123 0.000473267942831
124 0.000277567181928
125 0.000215860264979
126 -0.000392260890269
127 -0.000135311636785
128 -0.000231864877367