[Molden Format]
[GTO]
    1 0
 s  15 1.00
   90726.8892100    0.0000392600
   13590.5288010    0.0003051300
    3092.9883781    0.0016000600
     875.9987636    0.0066982900
     285.7446998    0.0236900800
     103.1191342    0.0714554100
      40.1285568    0.1763277500
      16.5280957    0.3267759300
      69.3909610    0.0000000000
      20.4282006    0.0000000000
       7.1292588    0.0000000000
       3.1324305    0.0000000000
       0.9875578    0.0000000000
       0.3876572    0.0000000000
       0.1490988    0.0000000000
 s  15 1.00
   90726.8892100    0.0000000000
   13590.5288010    0.0000000000
    3092.9883781    0.0000000000
     875.9987636    0.0000000000
     285.7446998    0.0000000000
     103.1191342    0.0000000000
      40.1285568    0.0000000000
      16.5280957    0.0000000000
      69.3909610    0.0800520900
      20.4282006    0.7826806400
       7.1292588    0.0000000000
       3.1324305    0.0000000000
       0.9875578    0.0000000000
       0.3876572    0.0000000000
       0.1490988    0.0000000000
 s  15 1.00
   90726.8892100    0.0000000000
   13590.5288010    0.0000000000
    3092.9883781    0.0000000000
     875.9987636    0.0000000000
     285.7446998    0.0000000000
     103.1191342    0.0000000000
      40.1285568    0.0000000000
      16.5280957    0.0000000000
      69.3909610    0.0000000000
      20.4282006    0.0000000000
       7.1292588    1.0000000000
       3.1324305    0.0000000000
       0.9875578    0.0000000000
       0.3876572    0.0000000000
       0.1490988    0.0000000000
 s  15 1.00
   90726.8892100    0.0000000000
   13590.5288010    0.0000000000
    3092.9883781    0.0000000000
     875.9987636    0.0000000000
     285.7446998    0.0000000000
     103.1191342    0.0000000000
      40.1285568    0.0000000000
      16.5280957    0.0000000000
      69.3909610    0.0000000000
      20.4282006    0.0000000000
       7.1292588    0.0000000000
       3.1324305    1.0000000000
       0.9875578    0.0000000000
       0.3876572    0.0000000000
       0.1490988    0.0000000000
 s  15 1.00
   90726.8892100    0.0000000000
   13590.5288010    0.0000000000
    3092.9883781    0.0000000000
     875.9987636    0.0000000000
     285.7446998    0.0000000000
     103.1191342    0.0000000000
      40.1285568    0.0000000000
      16.5280957    0.0000000000
      69.3909610    0.0000000000
      20.4282006    0.0000000000
       7.1292588    0.0000000000
       3.1324305    0.0000000000
       0.9875578    1.0000000000
       0.3876572    0.0000000000
       0.1490988    0.0000000000
 s  15 1.00
   90726.8892100    0.0000000000
   13590.5288010    0.0000000000
    3092.9883781    0.0000000000
     875.9987636    0.0000000000
     285.7446998    0.0000000000
     103.1191342    0.0000000000
      40.1285568    0.0000000000
      16.5280957    0.0000000000
      69.3909610    0.0000000000
      20.4282006    0.0000000000
       7.1292588    0.0000000000
       3.1324305    0.0000000000
       0.9875578    0.0000000000
       0.3876572    1.0000000000
       0.1490988    0.0000000000
 s  15 1.00
   90726.8892100    0.0000000000
   13590.5288010    0.0000000000
    3092.9883781    0.0000000000
     875.9987636    0.0000000000
     285.7446998    0.0000000000
     103.1191342    0.0000000000
      40.1285568    0.0000000000
      16.5280957    0.0000000000
      69.3909610    0.0000000000
      20.4282006    0.0000000000
       7.1292588    0.0000000000
       3.1324305    0.0000000000
       0.9875578    0.0000000000
       0.3876572    0.0000000000
       0.1490988    1.0000000000
 p   8 1.00
     150.0574267   -0.0008621600
      35.4915995   -0.0068571300
      11.2478642   -0.0317956900
       4.0900305   -0.1053739700
       1.6220573   -0.2451970800
       0.6644226    0.0000000000
       0.2709977    0.0000000000
       0.1068875    0.0000000000
 p   8 1.00
     150.0574267    0.0000000000
      35.4915995    0.0000000000
      11.2478642    0.0000000000
       4.0900305    0.0000000000
       1.6220573    0.0000000000
       0.6644226    1.0000000000
       0.2709977    0.0000000000
       0.1068875    0.0000000000
 p   8 1.00
     150.0574267    0.0000000000
      35.4915995    0.0000000000
      11.2478642    0.0000000000
       4.0900305    0.0000000000
       1.6220573    0.0000000000
       0.6644226    0.0000000000
       0.2709977    1.0000000000
       0.1068875    0.0000000000
 p   8 1.00
     150.0574267    0.0000000000
      35.4915995    0.0000000000
      11.2478642    0.0000000000
       4.0900305    0.0000000000
       1.6220573    0.0000000000
       0.6644226    0.0000000000
       0.2709977    0.0000000000
       0.1068875    1.0000000000
 d   3 1.00
       2.8370000    1.0000000000
       0.9680000    0.0000000000
       0.3350000    0.0000000000
 d   3 1.00
       2.8370000    0.0000000000
       0.9680000    1.0000000000
       0.3350000    0.0000000000
 d   3 1.00
       2.8370000    0.0000000000
       0.9680000    0.0000000000
       0.3350000    1.0000000000
 f   2 1.00
       2.0270000    1.0000000000
       0.6850000    0.0000000000
 f   2 1.00
       2.0270000    0.0000000000
       0.6850000    1.0000000000
 g   1 1.00
       1.4270000    1.0000000000

    2 0
 s  15 1.00
   90726.8892100    0.0000392600
   13590.5288010    0.0003051300
    3092.9883781    0.0016000600
     875.9987636    0.0066982900
     285.7446998    0.0236900800
     103.1191342    0.0714554100
      40.1285568    0.1763277500
      16.5280957    0.3267759300
      69.3909610    0.0000000000
      20.4282006    0.0000000000
       7.1292588    0.0000000000
       3.1324305    0.0000000000
       0.9875578    0.0000000000
       0.3876572    0.0000000000
       0.1490988    0.0000000000
 s  15 1.00
   90726.8892100    0.0000000000
   13590.5288010    0.0000000000
    3092.9883781    0.0000000000
     875.9987636    0.0000000000
     285.7446998    0.0000000000
     103.1191342    0.0000000000
      40.1285568    0.0000000000
      16.5280957    0.0000000000
      69.3909610    0.0800520900
      20.4282006    0.7826806400
       7.1292588    0.0000000000
       3.1324305    0.0000000000
       0.9875578    0.0000000000
       0.3876572    0.0000000000
       0.1490988    0.0000000000
 s  15 1.00
   90726.8892100    0.0000000000
   13590.5288010    0.0000000000
    3092.9883781    0.0000000000
     875.9987636    0.0000000000
     285.7446998    0.0000000000
     103.1191342    0.0000000000
      40.1285568    0.0000000000
      16.5280957    0.0000000000
      69.3909610    0.0000000000
      20.4282006    0.0000000000
       7.1292588    1.0000000000
       3.1324305    0.0000000000
       0.9875578    0.0000000000
       0.3876572    0.0000000000
       0.1490988    0.0000000000
 s  15 1.00
   90726.8892100    0.0000000000
   13590.5288010    0.0000000000
    3092.9883781    0.0000000000
     875.9987636    0.0000000000
     285.7446998    0.0000000000
     103.1191342    0.0000000000
      40.1285568    0.0000000000
      16.5280957    0.0000000000
      69.3909610    0.0000000000
      20.4282006    0.0000000000
       7.1292588    0.0000000000
       3.1324305    1.0000000000
       0.9875578    0.0000000000
       0.3876572    0.0000000000
       0.1490988    0.0000000000
 s  15 1.00
   90726.8892100    0.0000000000
   13590.5288010    0.0000000000
    3092.9883781    0.0000000000
     875.9987636    0.0000000000
     285.7446998    0.0000000000
     103.1191342    0.0000000000
      40.1285568    0.0000000000
      16.5280957    0.0000000000
      69.3909610    0.0000000000
      20.4282006    0.0000000000
       7.1292588    0.0000000000
       3.1324305    0.0000000000
       0.9875578    1.0000000000
       0.3876572    0.0000000000
       0.1490988    0.0000000000
 s  15 1.00
   90726.8892100    0.0000000000
   13590.5288010    0.0000000000
    3092.9883781    0.0000000000
     875.9987636    0.0000000000
     285.7446998    0.0000000000
     103.1191342    0.0000000000
      40.1285568    0.0000000000
      16.5280957    0.0000000000
      69.3909610    0.0000000000
      20.4282006    0.0000000000
       7.1292588    0.0000000000
       3.1324305    0.0000000000
       0.9875578    0.0000000000
       0.3876572    1.0000000000
       0.1490988    0.0000000000
 s  15 1.00
   90726.8892100    0.0000000000
   13590.5288010    0.0000000000
    3092.9883781    0.0000000000
     875.9987636    0.0000000000
     285.7446998    0.0000000000
     103.1191342    0.0000000000
      40.1285568    0.0000000000
      16.5280957    0.0000000000
      69.3909610    0.0000000000
      20.4282006    0.0000000000
       7.1292588    0.0000000000
       3.1324305    0.0000000000
       0.9875578    0.0000000000
       0.3876572    0.0000000000
       0.1490988    1.0000000000
 p   8 1.00
     150.0574267   -0.0008621600
      35.4915995   -0.0068571300
      11.2478642   -0.0317956900
       4.0900305   -0.1053739700
       1.6220573   -0.2451970800
       0.6644226    0.0000000000
       0.2709977    0.0000000000
       0.1068875    0.0000000000
 p   8 1.00
     150.0574267    0.0000000000
      35.4915995    0.0000000000
      11.2478642    0.0000000000
       4.0900305    0.0000000000
       1.6220573    0.0000000000
       0.6644226    1.0000000000
       0.2709977    0.0000000000
       0.1068875    0.0000000000
 p   8 1.00
     150.0574267    0.0000000000
      35.4915995    0.0000000000
      11.2478642    0.0000000000
       4.0900305    0.0000000000
       1.6220573    0.0000000000
       0.6644226    0.0000000000
       0.2709977    1.0000000000
       0.1068875    0.0000000000
 p   8 1.00
     150.0574267    0.0000000000
      35.4915995    0.0000000000
      11.2478642    0.0000000000
       4.0900305    0.0000000000
       1.6220573    0.0000000000
       0.6644226    0.0000000000
       0.2709977    0.0000000000
       0.1068875    1.0000000000
 d   3 1.00
       2.8370000    1.0000000000
       0.9680000    0.0000000000
       0.3350000    0.0000000000
 d   3 1.00
       2.8370000    0.0000000000
       0.9680000    1.0000000000
       0.3350000    0.0000000000
 d   3 1.00
       2.8370000    0.0000000000
       0.9680000    0.0000000000
       0.3350000    1.0000000000
 f   2 1.00
       2.0270000    1.0000000000
       0.6850000    0.0000000000
 f   2 1.00
       2.0270000    0.0000000000
       0.6850000    1.0000000000
 g   1 1.00
       1.4270000    1.0000000000

    3 0
 s  15 1.00
   90726.8892100    0.0000392600
   13590.5288010    0.0003051300
    3092.9883781    0.0016000600
     875.9987636    0.0066982900
     285.7446998    0.0236900800
     103.1191342    0.0714554100
      40.1285568    0.1763277500
      16.5280957    0.3267759300
      69.3909610    0.0000000000
      20.4282006    0.0000000000
       7.1292588    0.0000000000
       3.1324305    0.0000000000
       0.9875578    0.0000000000
       0.3876572    0.0000000000
       0.1490988    0.0000000000
 s  15 1.00
   90726.8892100    0.0000000000
   13590.5288010    0.0000000000
    3092.9883781    0.0000000000
     875.9987636    0.0000000000
     285.7446998    0.0000000000
     103.1191342    0.0000000000
      40.1285568    0.0000000000
      16.5280957    0.0000000000
      69.3909610    0.0800520900
      20.4282006    0.7826806400
       7.1292588    0.0000000000
       3.1324305    0.0000000000
       0.9875578    0.0000000000
       0.3876572    0.0000000000
       0.1490988    0.0000000000
 s  15 1.00
   90726.8892100    0.0000000000
   13590.5288010    0.0000000000
    3092.9883781    0.0000000000
     875.9987636    0.0000000000
     285.7446998    0.0000000000
     103.1191342    0.0000000000
      40.1285568    0.0000000000
      16.5280957    0.0000000000
      69.3909610    0.0000000000
      20.4282006    0.0000000000
       7.1292588    1.0000000000
       3.1324305    0.0000000000
       0.9875578    0.0000000000
       0.3876572    0.0000000000
       0.1490988    0.0000000000
 s  15 1.00
   90726.8892100    0.0000000000
   13590.5288010    0.0000000000
    3092.9883781    0.0000000000
     875.9987636    0.0000000000
     285.7446998    0.0000000000
     103.1191342    0.0000000000
      40.1285568    0.0000000000
      16.5280957    0.0000000000
      69.3909610    0.0000000000
      20.4282006    0.0000000000
       7.1292588    0.0000000000
       3.1324305    1.0000000000
       0.9875578    0.0000000000
       0.3876572    0.0000000000
       0.1490988    0.0000000000
 s  15 1.00
   90726.8892100    0.0000000000
   13590.5288010    0.0000000000
    3092.9883781    0.0000000000
     875.9987636    0.0000000000
     285.7446998    0.0000000000
     103.1191342    0.0000000000
      40.1285568    0.0000000000
      16.5280957    0.0000000000
      69.3909610    0.0000000000
      20.4282006    0.0000000000
       7.1292588    0.0000000000
       3.1324305    0.0000000000
       0.9875578    1.0000000000
       0.3876572    0.0000000000
       0.1490988    0.0000000000
 s  15 1.00
   90726.8892100    0.0000000000
   13590.5288010    0.0000000000
    3092.9883781    0.0000000000
     875.9987636    0.0000000000
     285.7446998    0.0000000000
     103.1191342    0.0000000000
      40.1285568    0.0000000000
      16.5280957    0.0000000000
      69.3909610    0.0000000000
      20.4282006    0.0000000000
       7.1292588    0.0000000000
       3.1324305    0.0000000000
       0.9875578    0.0000000000
       0.3876572    1.0000000000
       0.1490988    0.0000000000
 s  15 1.00
   90726.8892100    0.0000000000
   13590.5288010    0.0000000000
    3092.9883781    0.0000000000
     875.9987636    0.0000000000
     285.7446998    0.0000000000
     103.1191342    0.0000000000
      40.1285568    0.0000000000
      16.5280957    0.0000000000
      69.3909610    0.0000000000
      20.4282006    0.0000000000
       7.1292588    0.0000000000
       3.1324305    0.0000000000
       0.9875578    0.0000000000
       0.3876572    0.0000000000
       0.1490988    1.0000000000
 p   8 1.00
     150.0574267   -0.0008621600
      35.4915995   -0.0068571300
      11.2478642   -0.0317956900
       4.0900305   -0.1053739700
       1.6220573   -0.2451970800
       0.6644226    0.0000000000
       0.2709977    0.0000000000
       0.1068875    0.0000000000
 p   8 1.00
     150.0574267    0.0000000000
      35.4915995    0.0000000000
      11.2478642    0.0000000000
       4.0900305    0.0000000000
       1.6220573    0.0000000000
       0.6644226    1.0000000000
       0.2709977    0.0000000000
       0.1068875    0.0000000000
 p   8 1.00
     150.0574267    0.0000000000
      35.4915995    0.0000000000
      11.2478642    0.0000000000
       4.0900305    0.0000000000
       1.6220573    0.0000000000
       0.6644226    0.0000000000
       0.2709977    1.0000000000
       0.1068875    0.0000000000
 p   8 1.00
     150.0574267    0.0000000000
      35.4915995    0.0000000000
      11.2478642    0.0000000000
       4.0900305    0.0000000000
       1.6220573    0.0000000000
       0.6644226    0.0000000000
       0.2709977    0.0000000000
       0.1068875    1.0000000000
 d   3 1.00
       2.8370000    1.0000000000
       0.9680000    0.0000000000
       0.3350000    0.0000000000
 d   3 1.00
       2.8370000    0.0000000000
       0.9680000    1.0000000000
       0.3350000    0.0000000000
 d   3 1.00
       2.8370000    0.0000000000
       0.9680000    0.0000000000
       0.3350000    1.0000000000
 f   2 1.00
       2.0270000    1.0000000000
       0.6850000    0.0000000000
 f   2 1.00
       2.0270000    0.0000000000
       0.6850000    1.0000000000
 g   1 1.00
       1.4270000    1.0000000000

    4 0
 s  15 1.00
   90726.8892100    0.0000392600
   13590.5288010    0.0003051300
    3092.9883781    0.0016000600
     875.9987636    0.0066982900
     285.7446998    0.0236900800
     103.1191342    0.0714554100
      40.1285568    0.1763277500
      16.5280957    0.3267759300
      69.3909610    0.0000000000
      20.4282006    0.0000000000
       7.1292588    0.0000000000
       3.1324305    0.0000000000
       0.9875578    0.0000000000
       0.3876572    0.0000000000
       0.1490988    0.0000000000
 s  15 1.00
   90726.8892100    0.0000000000
   13590.5288010    0.0000000000
    3092.9883781    0.0000000000
     875.9987636    0.0000000000
     285.7446998    0.0000000000
     103.1191342    0.0000000000
      40.1285568    0.0000000000
      16.5280957    0.0000000000
      69.3909610    0.0800520900
      20.4282006    0.7826806400
       7.1292588    0.0000000000
       3.1324305    0.0000000000
       0.9875578    0.0000000000
       0.3876572    0.0000000000
       0.1490988    0.0000000000
 s  15 1.00
   90726.8892100    0.0000000000
   13590.5288010    0.0000000000
    3092.9883781    0.0000000000
     875.9987636    0.0000000000
     285.7446998    0.0000000000
     103.1191342    0.0000000000
      40.1285568    0.0000000000
      16.5280957    0.0000000000
      69.3909610    0.0000000000
      20.4282006    0.0000000000
       7.1292588    1.0000000000
       3.1324305    0.0000000000
       0.9875578    0.0000000000
       0.3876572    0.0000000000
       0.1490988    0.0000000000
 s  15 1.00
   90726.8892100    0.0000000000
   13590.5288010    0.0000000000
    3092.9883781    0.0000000000
     875.9987636    0.0000000000
     285.7446998    0.0000000000
     103.1191342    0.0000000000
      40.1285568    0.0000000000
      16.5280957    0.0000000000
      69.3909610    0.0000000000
      20.4282006    0.0000000000
       7.1292588    0.0000000000
       3.1324305    1.0000000000
       0.9875578    0.0000000000
       0.3876572    0.0000000000
       0.1490988    0.0000000000
 s  15 1.00
   90726.8892100    0.0000000000
   13590.5288010    0.0000000000
    3092.9883781    0.0000000000
     875.9987636    0.0000000000
     285.7446998    0.0000000000
     103.1191342    0.0000000000
      40.1285568    0.0000000000
      16.5280957    0.0000000000
      69.3909610    0.0000000000
      20.4282006    0.0000000000
       7.1292588    0.0000000000
       3.1324305    0.0000000000
       0.9875578    1.0000000000
       0.3876572    0.0000000000
       0.1490988    0.0000000000
 s  15 1.00
   90726.8892100    0.0000000000
   13590.5288010    0.0000000000
    3092.9883781    0.0000000000
     875.9987636    0.0000000000
     285.7446998    0.0000000000
     103.1191342    0.0000000000
      40.1285568    0.0000000000
      16.5280957    0.0000000000
      69.3909610    0.0000000000
      20.4282006    0.0000000000
       7.1292588    0.0000000000
       3.1324305    0.0000000000
       0.9875578    0.0000000000
       0.3876572    1.0000000000
       0.1490988    0.0000000000
 s  15 1.00
   90726.8892100    0.0000000000
   13590.5288010    0.0000000000
    3092.9883781    0.0000000000
     875.9987636    0.0000000000
     285.7446998    0.0000000000
     103.1191342    0.0000000000
      40.1285568    0.0000000000
      16.5280957    0.0000000000
      69.3909610    0.0000000000
      20.4282006    0.0000000000
       7.1292588    0.0000000000
       3.1324305    0.0000000000
       0.9875578    0.0000000000
       0.3876572    0.0000000000
       0.1490988    1.0000000000
 p   8 1.00
     150.0574267   -0.0008621600
      35.4915995   -0.0068571300
      11.2478642   -0.0317956900
       4.0900305   -0.1053739700
       1.6220573   -0.2451970800
       0.6644226    0.0000000000
       0.2709977    0.0000000000
       0.1068875    0.0000000000
 p   8 1.00
     150.0574267    0.0000000000
      35.4915995    0.0000000000
      11.2478642    0.0000000000
       4.0900305    0.0000000000
       1.6220573    0.0000000000
       0.6644226    1.0000000000
       0.2709977    0.0000000000
       0.1068875    0.0000000000
 p   8 1.00
     150.0574267    0.0000000000
      35.4915995    0.0000000000
      11.2478642    0.0000000000
       4.0900305    0.0000000000
       1.6220573    0.0000000000
       0.6644226    0.0000000000
       0.2709977    1.0000000000
       0.1068875    0.0000000000
 p   8 1.00
     150.0574267    0.0000000000
      35.4915995    0.0000000000
      11.2478642    0.0000000000
       4.0900305    0.0000000000
       1.6220573    0.0000000000
       0.6644226    0.0000000000
       0.2709977    0.0000000000
       0.1068875    1.0000000000
 d   3 1.00
       2.8370000    1.0000000000
       0.9680000    0.0000000000
       0.3350000    0.0000000000
 d   3 1.00
       2.8370000    0.0000000000
       0.9680000    1.0000000000
       0.3350000    0.0000000000
 d   3 1.00
       2.8370000    0.0000000000
       0.9680000    0.0000000000
       0.3350000    1.0000000000
 f   2 1.00
       2.0270000    1.0000000000
       0.6850000    0.0000000000
 f   2 1.00
       2.0270000    0.0000000000
       0.6850000    1.0000000000
 g   1 1.00
       1.4270000    1.0000000000

[SCFCONV]
scf-first  1  THROUGH  11
     -216.7709738932
     -217.5401719409
     -217.6044388165
     -217.6081183126
     -217.6084038490
     -217.6084277534
     -217.6084352895
     -217.6084359343
     -217.6084359539
     -217.6084359549
     -217.6084359550
[TITLE]
*** Dalton interface to Molden, wave function type : HF            21Jan18   18:
[Atoms] AU
N          1     7        -1.2141710420         0.0000000000         1.192911653
N          2     7         1.3902700099        -0.8023365584         0.582123105
N          3     7        -0.5808226486        -0.8023365584        -1.377397541
N          4     7         0.4047236807         1.6046731167        -0.397637217
[5D7F]
[9G]
[MO]
Sym= A
Ene=  -15.7489
Spin= Alpha
Occup=  2.0000
    1       -0.279058
    2        0.000210
    3       -0.185711
    4       -0.084630
    5       -0.005611
    6        0.001848
    7       -0.000905
    8        0.001328
   10       -0.001319
   11        0.001173
   12        0.000002
   13       -0.001127
   14       -0.000895
   15        0.000005
   16        0.000943
   17        0.000008
   19       -0.000005
   20       -0.000015
   21        0.000065
   22        0.000001
   23       -0.000034
   25        0.000001
   26       -0.000080
   27       -0.000007
   28        0.000052
   29       -0.000004
   30       -0.000129
   31        0.000383
   32       -0.000011
   33       -0.000182
   34       -0.000006
   35        0.000006
   36        0.000011
   37        0.000003
   38       -0.000014
   39        0.000001
   40        0.000007
   42        0.000001
   43       -0.000028
   44        0.000059
   45        0.000020
   46        0.000065
   47       -0.000006
   48        0.000063
   49       -0.000009
   50       -0.000001
   51       -0.000018
   52        0.000013
   53       -0.000006
   54       -0.000011
   55        0.000003
   56        0.000004
   57        0.000014
   58       -0.264975
   59        0.000196
   60       -0.176329
   61       -0.080388
   62       -0.005210
   63        0.001587
   64       -0.001039
   65       -0.001433
   66        0.000832
   67       -0.000607
   68       -0.001238
   69        0.000722
   70       -0.000512
   71        0.001175
   72       -0.000653
   73        0.000505
   74        0.000009
   75       -0.000004
   76        0.000004
   77        0.000023
   78       -0.000031
   79        0.000019
   80       -0.000024
   81        0.000044
   82       -0.000031
   83        0.000027
   84       -0.000022
   85        0.000028
   86       -0.000054
   87        0.000156
   88       -0.000249
   89        0.000131
   90       -0.000201
   91        0.000318
   92        0.000007
   93        0.000006
   94       -0.000002
   95       -0.000006
   96        0.000010
   97       -0.000001
   98        0.000015
   99       -0.000047
  100        0.000050
  101        0.000074
  102       -0.000029
  103       -0.000015
  104        0.000042
  105       -0.000042
  106        0.000007
  107       -0.000014
  108       -0.000008
  109       -0.000014
  110       -0.000006
  111        0.000006
  112       -0.000019
  113       -0.000014
  114       -0.000001
  115       -0.288610
  116        0.000219
  117       -0.192074
  118       -0.087508
  119       -0.005886
  120        0.002032
  121       -0.000819
  122        0.000661
  123        0.000917
  124        0.001584
  125        0.000591
  126        0.000799
  127        0.001379
  128       -0.000389
  129       -0.000585
  130       -0.000983
  131        0.000008
  132        0.000009
  133        0.000017
  134       -0.000039
  135       -0.000040
  136       -0.000053
  137        0.000006
  138       -0.000023
  139        0.000045
  140        0.000061
  141        0.000066
  142       -0.000005
  143        0.000031
  144       -0.000200
  145       -0.000180
  146       -0.000280
  147        0.000045
  148       -0.000116
  149        0.000001
  150        0.000011
  151        0.000010
  152       -0.000005
  153        0.000010
  154       -0.000002
  155        0.000002
  156        0.000003
  157        0.000014
  158       -0.000046
  159       -0.000050
  160       -0.000009
  161        0.000057
  162        0.000059
  163       -0.000002
  164        0.000015
  166       -0.000014
  167        0.000014
  168       -0.000003
  169        0.000005
  170       -0.000004
  171        0.000013
  172       -0.275133
  173        0.000206
  174       -0.183096
  175       -0.083448
  176       -0.005500
  177        0.001776
  178       -0.000949
  179       -0.000435
  180       -0.001738
  181        0.000434
  182       -0.000368
  183       -0.001507
  184        0.000383
  185        0.000355
  186        0.001261
  187       -0.000285
  188        0.000001
  189       -0.000002
  190        0.000002
  191        0.000031
  192        0.000007
  193        0.000030
  194        0.000052
  195       -0.000026
  196       -0.000038
  197       -0.000007
  198       -0.000043
  199       -0.000063
  200        0.000023
  201        0.000194
  202        0.000047
  203        0.000152
  204        0.000325
  205       -0.000204
  206       -0.000005
  207        0.000003
  208        0.000008
  209       -0.000008
  210        0.000005
  211        0.000010
  212        0.000011
  213        0.000064
  214        0.000060
  215       -0.000015
  216       -0.000034
  217        0.000033
  218       -0.000057
  219       -0.000014
  220        0.000012
  221        0.000006
  222        0.000001
  223       -0.000001
  224       -0.000013
  225        0.000018
  226        0.000016
  227        0.000011
  228       -0.000001
Sym= A
Ene=  -15.7480
Spin= Alpha
Occup=  2.0000
    1        0.165586
    2       -0.000153
    3        0.110316
    4        0.049898
    5        0.004678
    6       -0.003263
    7       -0.001952
    8       -0.000846
    9        0.000023
   10        0.000878
   11       -0.000714
   12        0.000290
   13        0.001171
   14       -0.000375
   15        0.001116
   16        0.002154
   17       -0.000153
   18        0.000069
   19        0.000259
   20        0.000109
   21       -0.000079
   22        0.000073
   23        0.000023
   24       -0.000032
   25       -0.000414
   26        0.000157
   27       -0.000316
   28       -0.000025
   29        0.000124
   30       -0.000988
   31        0.000402
   32       -0.000734
   33       -0.000038
   34        0.000320
   35       -0.000011
   36        0.000014
   37       -0.000012
   38       -0.000002
   39        0.000007
   40       -0.000001
   41       -0.000009
   42        0.000388
   43       -0.000261
   44        0.000352
   45       -0.000006
   46       -0.000253
   47       -0.000029
   48        0.000063
   49       -0.000063
   50        0.000081
   51       -0.000078
   52        0.000007
   53        0.000069
   54        0.000007
   55       -0.000029
   56       -0.000008
   57       -0.000001
   58        0.084336
   59       -0.000077
   60        0.056184
   61        0.025419
   62        0.002347
   63       -0.001587
   64       -0.000922
   65        0.000505
   66       -0.000266
   67        0.000234
   68        0.000595
   69        0.000002
   70        0.000520
   71        0.000909
   72        0.000820
   73        0.001426
   74        0.000127
   75        0.000011
   76        0.000123
   77        0.000039
   78        0.000107
   79        0.000009
   80        0.000063
   81        0.000013
   82       -0.000196
   83       -0.000402
   84       -0.000084
   85       -0.000222
   86       -0.000107
   87       -0.000463
   88       -0.000953
   89       -0.000163
   90       -0.000543
   91       -0.000273
   92        0.000006
   93       -0.000015
   94        0.000004
   95       -0.000015
   96        0.000002
   97       -0.000012
   98       -0.000001
   99       -0.000060
  100        0.000385
  101       -0.000063
  102        0.000470
  103        0.000035
  104        0.000212
  105        0.000011
  106        0.000059
  107       -0.000019
  108        0.000019
  109       -0.000088
  110        0.000010
  111       -0.000100
  112        0.000026
  113       -0.000019
  114        0.000009
  115       -0.464673
  116        0.000435
  117       -0.309588
  118       -0.139981
  119       -0.013283
  120        0.009283
  121        0.005686
  122        0.001161
  123        0.001625
  124        0.002794
  125        0.001216
  126        0.001826
  127        0.003004
  128        0.001600
  129        0.002758
  130        0.004168
  131        0.000278
  132        0.000414
  133        0.000677
  134       -0.000140
  135       -0.000130
  136       -0.000209
  137        0.000042
  138       -0.000091
  139        0.000310
  140        0.000275
  141        0.000498
  142       -0.000126
  143        0.000226
  144        0.000808
  145        0.000717
  146        0.001281
  147       -0.000315
  148        0.000570
  150       -0.000007
  151       -0.000024
  152       -0.000005
  153       -0.000014
  154        0.000017
  155        0.000012
  156        0.000011
  157        0.000040
  158        0.000235
  159       -0.000035