

     ************************************************************************
     *************** Dalton - An Electronic Structure Program ***************
     ************************************************************************

    This is output from DALTON release Dalton2017.alpha (2017)
         ( Web site: http://daltonprogram.org )

   ----------------------------------------------------------------------------

    NOTE:
     
    Dalton is an experimental code for the evaluation of molecular
    properties using (MC)SCF, DFT, CI, and CC wave functions.
    The authors accept no responsibility for the performance of
    the code or for the correctness of the results.
     
    The code (in whole or part) is provided under a licence and
    is not to be reproduced for further distribution without
    the written permission of the authors or their representatives.
     
    See the home page "http://daltonprogram.org" for further information.
     
    If results obtained with this code are published,
    the appropriate citations would be both of:
     
       K. Aidas, C. Angeli, K. L. Bak, V. Bakken, R. Bast,
       L. Boman, O. Christiansen, R. Cimiraglia, S. Coriani,
       P. Dahle, E. K. Dalskov, U. Ekstroem,
       T. Enevoldsen, J. J. Eriksen, P. Ettenhuber, B. Fernandez,
       L. Ferrighi, H. Fliegl, L. Frediani, K. Hald, A. Halkier,
       C. Haettig, H. Heiberg, T. Helgaker, A. C. Hennum,
       H. Hettema, E. Hjertenaes, S. Hoest, I.-M. Hoeyvik,
       M. F. Iozzi, B. Jansik, H. J. Aa. Jensen, D. Jonsson,
       P. Joergensen, J. Kauczor, S. Kirpekar,
       T. Kjaergaard, W. Klopper, S. Knecht, R. Kobayashi, H. Koch,
       J. Kongsted, A. Krapp, K. Kristensen, A. Ligabue,
       O. B. Lutnaes, J. I. Melo, K. V. Mikkelsen, R. H. Myhre,
       C. Neiss, C. B. Nielsen, P. Norman, J. Olsen,
       J. M. H. Olsen, A. Osted, M. J. Packer, F. Pawlowski,
       T. B. Pedersen, P. F. Provasi, S. Reine, Z. Rinkevicius,
       T. A. Ruden, K. Ruud, V. Rybkin, P. Salek, C. C. M. Samson,
       A. Sanchez de Meras, T. Saue, S. P. A. Sauer,
       B. Schimmelpfennig, K. Sneskov, A. H. Steindal,
       K. O. Sylvester-Hvid, P. R. Taylor, A. M. Teale,
       E. I. Tellgren, D. P. Tew, A. J. Thorvaldsen, L. Thoegersen,
       O. Vahtras, M. A. Watson, D. J. D. Wilson, M. Ziolkowski
       and H. Agren,
       "The Dalton quantum chemistry program system",
       WIREs Comput. Mol. Sci. 2014, 4:269–284 (doi: 10.1002/wcms.1172)
     
    and
     
       Dalton, a Molecular Electronic Structure Program,
       Release Dalton2017.alpha (2017), see http://daltonprogram.org
   ----------------------------------------------------------------------------

    Authors in alphabetical order (major contribution(s) in parenthesis):

  Kestutis Aidas,           Vilnius University,           Lithuania   (QM/MM)
  Celestino Angeli,         University of Ferrara,        Italy       (NEVPT2)
  Keld L. Bak,              UNI-C,                        Denmark     (AOSOPPA, non-adiabatic coupling, magnetic properties)
  Vebjoern Bakken,          University of Oslo,           Norway      (DALTON; geometry optimizer, symmetry detection)
  Radovan Bast,             UiT The Arctic U. of Norway,  Norway      (DALTON installation and execution frameworks)
  Pablo Baudin,             University of Valencia,       Spain       (Cholesky excitation energies)
  Linus Boman,              NTNU,                         Norway      (Cholesky decomposition and subsystems)
  Ove Christiansen,         Aarhus University,            Denmark     (CC module)
  Renzo Cimiraglia,         University of Ferrara,        Italy       (NEVPT2)
  Sonia Coriani,            University of Trieste,        Italy       (CC module, MCD in RESPONS)
  Janusz Cukras,            University of Trieste,        Italy       (MChD in RESPONS)
  Paal Dahle,               University of Oslo,           Norway      (Parallelization)
  Erik K. Dalskov,          UNI-C,                        Denmark     (SOPPA)
  Thomas Enevoldsen,        Univ. of Southern Denmark,    Denmark     (SOPPA)
  Janus J. Eriksen,         Aarhus University,            Denmark     (Polarizable embedding model, TDA)
  Rasmus Faber,             University of Copenhagen,     Denmark     (Vib.avg. NMR with SOPPA, parallel AO-SOPPA)
  Berta Fernandez,          U. of Santiago de Compostela, Spain       (doublet spin, ESR in RESPONS)
  Lara Ferrighi,            Aarhus University,            Denmark     (PCM Cubic response)
  Heike Fliegl,             University of Oslo,           Norway      (CCSD(R12))
  Luca Frediani,            UiT The Arctic U. of Norway,  Norway      (PCM)
  Bin Gao,                  UiT The Arctic U. of Norway,  Norway      (Gen1Int library)
  Christof Haettig,         Ruhr-University Bochum,       Germany     (CC module)
  Kasper Hald,              Aarhus University,            Denmark     (CC module)
  Asger Halkier,            Aarhus University,            Denmark     (CC module)
  Frederik Beyer Hansen,    University of Copenhagen,     Denmark     (Parallel AO-SOPPA)
  Erik D. Hedegaard,        Univ. of Southern Denmark,    Denmark     (Polarizable embedding model, QM/MM)
  Hanne Heiberg,            University of Oslo,           Norway      (geometry analysis, selected one-electron integrals)
  Trygve Helgaker,          University of Oslo,           Norway      (DALTON; ABACUS, ERI, DFT modules, London, and much more)
  Alf Christian Hennum,     University of Oslo,           Norway      (Parity violation)
  Hinne Hettema,            University of Auckland,       New Zealand (quadratic response in RESPONS; SIRIUS supersymmetry)
  Eirik Hjertenaes,         NTNU,                         Norway      (Cholesky decomposition)
  Pi A. B. Haase,           University of Copenhagen,     Denmark     (Triplet AO-SOPPA)
  Maria Francesca Iozzi,    University of Oslo,           Norway      (RPA)
  Brano Jansik              Technical Univ. of Ostrava    Czech Rep.  (DFT cubic response)
  Hans Joergen Aa. Jensen,  Univ. of Southern Denmark,    Denmark     (DALTON; SIRIUS, RESPONS, ABACUS modules, London, and much more)
  Dan Jonsson,              UiT The Arctic U. of Norway,  Norway      (cubic response in RESPONS module)
  Poul Joergensen,          Aarhus University,            Denmark     (RESPONS, ABACUS, and CC modules)
  Maciej Kaminski,          University of Warsaw,         Poland      (CPPh in RESPONS)
  Joanna Kauczor,           Linkoeping University,        Sweden      (Complex polarization propagator (CPP) module)
  Sheela Kirpekar,          Univ. of Southern Denmark,    Denmark     (Mass-velocity & Darwin integrals)
  Wim Klopper,              KIT Karlsruhe,                Germany     (R12 code in CC, SIRIUS, and ABACUS modules)
  Stefan Knecht,            ETH Zurich,                   Switzerland (Parallel CI and MCSCF)
  Rika Kobayashi,           Australian National Univ.,    Australia   (DIIS in CC, London in MCSCF)
  Henrik Koch,              NTNU,                         Norway      (CC module, Cholesky decomposition)
  Jacob Kongsted,           Univ. of Southern Denmark,    Denmark     (Polarizable embedding model, QM/MM)
  Andrea Ligabue,           University of Modena,         Italy       (CTOCD, AOSOPPA)
  Nanna H. List             Univ. of Southern Denmark,    Denmark     (Polarizable embedding model)
  Ola B. Lutnaes,           University of Oslo,           Norway      (DFT Hessian)
  Juan I. Melo,             University of Buenos Aires,   Argentina   (LRESC, Relativistic Effects on NMR Shieldings)
  Kurt V. Mikkelsen,        University of Copenhagen,     Denmark     (MC-SCRF and QM/MM)
  Rolf H. Myhre,            NTNU,                         Norway      (Cholesky, subsystems and ECC2)
  Christian Neiss,          Univ. Erlangen-Nuernberg,     Germany     (CCSD(R12))
  Christian B. Nielsen,     University of Copenhagen,     Denmark     (QM/MM)
  Patrick Norman,           Linkoeping University,        Sweden      (Cubic response and complex frequency response in RESPONS)
  Jeppe Olsen,              Aarhus University,            Denmark     (SIRIUS CI/density modules)
  Jogvan Magnus H. Olsen,   Univ. of Southern Denmark,    Denmark     (Polarizable embedding model, QM/MM)
  Anders Osted,             Copenhagen University,        Denmark     (QM/MM)
  Martin J. Packer,         University of Sheffield,      UK          (SOPPA)
  Filip Pawlowski,          Kazimierz Wielki University,  Poland      (CC3)
  Morten N. Pedersen,       Univ. of Southern Denmark,    Denmark     (Polarizable embedding model)
  Thomas B. Pedersen,       University of Oslo,           Norway      (Cholesky decomposition)
  Patricio F. Provasi,      University of Northeastern,   Argentina   (Analysis of coupling constants in localized orbitals)
  Zilvinas Rinkevicius,     KTH Stockholm,                Sweden      (open-shell DFT, ESR)
  Elias Rudberg,            KTH Stockholm,                Sweden      (DFT grid and basis info)
  Torgeir A. Ruden,         University of Oslo,           Norway      (Numerical derivatives in ABACUS)
  Kenneth Ruud,             UiT The Arctic U. of Norway,  Norway      (DALTON; ABACUS magnetic properties and much more)
  Pawel Salek,              KTH Stockholm,                Sweden      (DALTON; DFT code)
  Claire C. M. Samson       University of Karlsruhe       Germany     (Boys localization, r12 integrals in ERI)
  Alfredo Sanchez de Meras, University of Valencia,       Spain       (CC module, Cholesky decomposition)
  Trond Saue,               Paul Sabatier University,     France      (direct Fock matrix construction)
  Stephan P. A. Sauer,      University of Copenhagen,     Denmark     (SOPPA(CCSD), SOPPA prop., AOSOPPA, vibrational g-factors)
  Bernd Schimmelpfennig,    Forschungszentrum Karlsruhe,  Germany     (AMFI module)
  Kristian Sneskov,         Aarhus University,            Denmark     (Polarizable embedding model, QM/MM)
  Arnfinn H. Steindal,      UiT The Arctic U. of Norway,  Norway      (parallel QM/MM, Polarizable embedding model)
  Casper Steinmann,         Univ. of Southern Denmark,    Denmark     (QFIT, Polarizable embedding model)
  K. O. Sylvester-Hvid,     University of Copenhagen,     Denmark     (MC-SCRF)
  Peter R. Taylor,          VLSCI/Univ. of Melbourne,     Australia   (Symmetry handling ABACUS, integral transformation)
  Andrew M. Teale,          University of Nottingham,     England     (DFT-AC, DFT-D)
  David P. Tew,             University of Bristol,        England     (CCSD(R12))
  Olav Vahtras,             KTH Stockholm,                Sweden      (triplet response, spin-orbit, ESR, TDDFT, open-shell DFT)
  David J. Wilson,          La Trobe University,          Australia   (DFT Hessian and DFT magnetizabilities)
  Hans Agren,               KTH Stockholm,                Sweden      (SIRIUS module, RESPONS, MC-SCRF solvation model)
 --------------------------------------------------------------------------------

     Date and time (Linux)  : Sun Jan 21 18:25:24 2018
     Host name              : vladimir-Kubuntu-16                     

 * Work memory size             :    64000000 =  488.28 megabytes.

 * Directories for basis set searches:
   1) /home/vladimir/git/molden2qmc/test/N4/DALTON/RHF/QZVP
   2) /home/vladimir/git/dalton/build/basis


Compilation information
-----------------------

 Who compiled             | vladimir
 Host                     | vladimir-Kubuntu-16
 System                   | Linux-4.10.0-42-generic
 CMake generator          | Unix Makefiles
 Processor                | x86_64
 64-bit integers          | OFF
 MPI                      | OFF
 Fortran compiler         | /usr/bin/gfortran
 Fortran compiler version | GNU Fortran (Ubuntu 6.3.0-12ubuntu2) 6.3.0 2017040
                          | 6
 C compiler               | /usr/bin/gcc
 C compiler version       | gcc (Ubuntu 6.3.0-12ubuntu2) 6.3.0 20170406
 C++ compiler             | /usr/bin/g++
 C++ compiler version     | g++ (Ubuntu 6.3.0-12ubuntu2) 6.3.0 20170406
 BLAS                     | /usr/lib/libopenblas.so
 LAPACK                   | /usr/lib/liblapack.so
 Static linking           | OFF
 Last Git revision        | 9303ffee678b31bc7478a34c517e03bc6fdd0083
 Git branch               | master
 Configuration time       | 2018-01-21 17:35:12.315804


   Content of the .dal input file
 ----------------------------------

**DALTON INPUT
.RUN WAVE FUNCTIONS
**WAVE FUNCTIONS
.HF
*END OF INPUT



   Content of the .mol file
 ----------------------------

BASIS
def2_qzvp
N4 molecule
---------------------------
Atomtypes=1 Charge=0 Angstrom
Atoms=4 Charge=7
N       0.5200      0.5300      0.5100
N      -0.5200     -0.5200      0.5200
N      -0.5200      0.5200     -0.5200
N       0.5200     -0.5200     -0.5200


       *******************************************************************
       *********** Output from DALTON general input processing ***********
       *******************************************************************

 --------------------------------------------------------------------------------
   Overall default print level:    0
   Print level for DALTON.STAT:    1

    HERMIT 1- and 2-electron integral sections will be executed
    "Old" integral transformation used (limited to max 255 basis functions)
    Wave function sections will be executed (SIRIUS module)
 --------------------------------------------------------------------------------


   ****************************************************************************
   *************** Output of molecule and basis set information ***************
   ****************************************************************************


    The two title cards from your ".mol" input:
    ------------------------------------------------------------------------
 1: N4 molecule                                                             
 2: ---------------------------                                             
    ------------------------------------------------------------------------

  Coordinates are entered in Angstrom and converted to atomic units.
          - Conversion factor : 1 bohr = 0.52917721 A

  Atomic type no.    1
  --------------------
  Nuclear charge:   7.00000
  Number of symmetry independent centers:    4
  Number of basis sets to read;    2
  Basis set file used for this atomic type with Z =   7 :
     "/home/vladimir/git/dalton/build/basis/def2_qzvp"

  Info about the basis set file: your basis has no documentation.
  Basis set: def2_qzvp                                                                       


                      SYMADD: Requested addition of symmetry
                      --------------------------------------

 Symmetry test threshold:  5.00E-06

@   The molecule is centered at center of mass and rotated
@   so principal axes of inertia are along coordinate axes.

 Symmetry class found: C(1)           

 Symmetry Independent Centres             
 ----------------------------
       7 :     -0.58082265    -0.80233656    -1.37739754  Isotope  1
       7 :      0.40472368     1.60467312    -0.39763722  Isotope  1
       7 :     -1.21417104     0.00000000     1.19291165  Isotope  1
       7 :      1.39027001    -0.80233656     0.58212311  Isotope  1

 No symmetry elements were found.


                         SYMGRP: Point group information
                         -------------------------------

@    Full point group is: C(1)           
@    Represented as:      C1 


                                 Isotopic Masses
                                 ---------------

                           N          14.003074
                           N          14.003074
                           N          14.003074
                           N          14.003074

                       Total mass:    56.012296 amu
                       Natural abundance:  98.528 %

 Center-of-mass coordinates (a.u.):   -0.000000    0.000000   -0.000000


  Atoms and basis sets
  --------------------

  Number of atom types :    1
  Total number of atoms:    4

  Basis set used is "def2_qzvp" from the basis set library.

  label    atoms   charge   prim   cont     basis
  ----------------------------------------------------------------------
  N           4    7.0000    77    57      [15s8p3d2f1g|7s4p3d2f1g]                           
  ----------------------------------------------------------------------
  total:      4   28.0000   308   228
  ----------------------------------------------------------------------
  Spherical harmonic basis used.

  Threshold for neglecting AO integrals:  1.00D-12


  Cartesian Coordinates (a.u.)
  ----------------------------

  Total number of coordinates:   12
  N       :     1  x  -1.2141710420    2  y   0.0000000000    3  z   1.1929116538
  N       :     4  x   1.3902700099    5  y  -0.8023365584    6  z   0.5821231056
  N       :     7  x  -0.5808226486    8  y  -0.8023365584    9  z  -1.3773975415
  N       :    10  x   0.4047236807   11  y   1.6046731167   12  z  -0.3976372179


   Interatomic separations (in Angstrom):
   --------------------------------------

            N           N           N           N     
            ------      ------      ------      ------
 N     :    0.000000
 N     :    1.477904    0.000000
 N     :    1.463762    1.470782    0.000000
 N     :    1.470850    1.470782    1.470782    0.000000


  Max    interatomic separation is    1.4779 Angstrom (    2.7928 Bohr)
  between atoms    2 and    1, "N     " and "N     ".

  Min YX interatomic separation is    1.4638 Angstrom (    2.7661 Bohr)


  Bond distances (Angstrom):
  --------------------------

                  atom 1     atom 2       distance
                  ------     ------       --------
  bond distance:  N          N            1.477904
  bond distance:  N          N            1.463762
  bond distance:  N          N            1.470782
  bond distance:  N          N            1.470850
  bond distance:  N          N            1.470782
  bond distance:  N          N            1.470782


  Bond angles (degrees):
  ----------------------

                  atom 1     atom 2     atom 3         angle
                  ------     ------     ------         -----
  bond angle:     N          N          N             59.995
  bond angle:     N          N          N             59.838
  bond angle:     N          N          N             60.156
  bond angle:     N          N          N             59.525
  bond angle:     N          N          N             59.843
  bond angle:     N          N          N             60.000
  bond angle:     N          N          N             60.479
  bond angle:     N          N          N             60.161
  bond angle:     N          N          N             60.000
  bond angle:     N          N          N             60.319
  bond angle:     N          N          N             59.683
  bond angle:     N          N          N             60.000




 Principal moments of inertia (u*A**2) and principal axes
 --------------------------------------------------------

   IA      30.114135          1.000000   -0.000000   -0.000000
   IB      30.293550          0.000000    1.000000    0.000000
   IC      30.470865          0.000000   -0.000000    1.000000


 Rotational constants
 --------------------

               A                   B                   C

          16782.1194          16682.7263          16585.6468 MHz
            0.559791            0.556476            0.553238 cm-1


@  Nuclear repulsion energy :  105.777940462098 Hartree


                     .---------------------------------------.
                     | Starting in Integral Section (HERMIT) |
                     `---------------------------------------'



 ***************************************************************************************
 ****************** Output from **INTEGRALS input processing (HERMIT) ******************
 ***************************************************************************************


 - Using defaults, no **INTEGRALS input found

 Default print level:        1

 * Nuclear model: Point charge

 Calculation of one- and two-electron Hamiltonian integrals.

 Center of mass  (bohr):     -0.000000000000      0.000000000000     -0.000000000000
 Operator center (bohr):      0.000000000000      0.000000000000      0.000000000000
 Gauge origin    (bohr):     -0.000000000000      0.000000000000     -0.000000000000
 Dipole origin   (bohr):     -0.000000000000      0.000000000000     -0.000000000000


     ************************************************************************
     ************************** Output from HERINT **************************
     ************************************************************************



                      Nuclear contribution to dipole moments
                      --------------------------------------

                 au               Debye          C m (/(10**-30)

      x      0.00000000         0.00000000         0.00000000
      y      0.00000000         0.00000000         0.00000000
      z     -0.00000000        -0.00000000        -0.00000000



 Threshold for neglecting two-electron integrals:  1.00D-12
 HERMIT - Number of two-electron integrals written:   324630185 ( 95.3% )
 HERMIT - Megabytes written:                           3717.166

  Time used in TWOINT     is      1 minute  47 seconds
  Total CPU  time used in HERMIT:  1 minute  48 seconds
  Total wall time used in HERMIT:  1 minute  54 seconds


                        .----------------------------------.
                        | End of Integral Section (HERMIT) |
                        `----------------------------------'



                   .--------------------------------------------.
                   | Starting in Wave Function Section (SIRIUS) |
                   `--------------------------------------------'


 *** Output from Huckel module :

     Using EWMO model:          T
     Using EHT  model:          F
     Number of Huckel orbitals each symmetry:   20

 EWMO - Energy Weighted Maximum Overlap - is a Huckel type method,
        which normally is better than Extended Huckel Theory.
 Reference: Linderberg and Ohrn, Propagators in Quantum Chemistry (Wiley, 1973)

 Huckel EWMO eigenvalues for symmetry :  1
          -15.676242     -15.670308     -15.670276     -15.670244      -2.063567
           -1.039702      -1.037311      -1.034948      -0.547278      -0.546205
           -0.545222      -0.541058      -0.514209      -0.510696      -0.283486
           -0.282728      -0.282037      -0.237807      -0.236447      -0.235029

 **********************************************************************
 *SIRIUS* a direct, restricted step, second order MCSCF program       *
 **********************************************************************

 
     Date and time (Linux)  : Sun Jan 21 18:27:19 2018
     Host name              : vladimir-Kubuntu-16                     

 Title lines from ".mol" input file:
     N4 molecule                                                             
     ---------------------------                                             

 Print level on unit LUPRI =   2 is   0
 Print level on unit LUW4  =   2 is   5

@    Restricted, closed shell Hartree-Fock calculation.

 Initial molecular orbitals are obtained according to
 ".MOSTART EWMO  " input option

     Wave function specification
     ============================
@    Wave function type        --- HF ---
@    Number of closed shell electrons          28
@    Number of electrons in active shells       0
@    Total charge of the molecule               0

@    Spin multiplicity and 2 M_S                1         0
@    Total number of symmetries                 1 (point group: C1 )
@    Reference state symmetry                   1 (irrep name : A  )

     Orbital specifications
     ======================
@    Abelian symmetry species          All |    1
@                                          |  A  
                                       --- |  ---
@    Occupied SCF orbitals              14 |   14
@    Secondary orbitals                214 |  214
@    Total number of orbitals          228 |  228
@    Number of basis functions         228 |  228

     Optimization information
     ========================
@    Number of configurations                 1
@    Number of orbital rotations           2996
     ------------------------------------------
@    Total number of variables             2997

     Maximum number of Fock   iterations      0
     Maximum number of DIIS   iterations     60
     Maximum number of QC-SCF iterations     60
     Threshold for SCF convergence     1.00D-05


 ***********************************************
 ***** DIIS acceleration of SCF iterations *****
 ***********************************************

 C1-DIIS algorithm; max error vectors =    8

 Iter      Total energy        Error norm    Delta(E)  DIIS dim.
 -----------------------------------------------------------------------------

Calculating AOSUPINT
     (Precalculated AO two-electron integrals are transformed to P-supermatrix elements.
      Threshold for discarding integrals :  1.00D-12 )
  CPU  time used in FORMSUP    is  22.60 seconds
  WALL time used in FORMSUP    is  36.68 seconds
@  1    -216.770973893        4.38542D+00   -2.17D+02    1
      Virial theorem: -V/T =      2.009157
@    MULPOP   N       0.00; N      -0.00; N       0.00; N      -0.00; 
   1  Level shift: doubly occupied orbital energies shifted by -2.00D-01
 -----------------------------------------------------------------------------
@  2    -217.540171941        1.32667D+00   -7.69D-01    2
      Virial theorem: -V/T =      1.996595
@    MULPOP   N      -0.00; N       0.00; N      -0.00; N       0.00; 
   2  Level shift: doubly occupied orbital energies shifted by -1.00D-01
 -----------------------------------------------------------------------------
@  3    -217.604438817        1.94722D-01   -6.43D-02    3
      Virial theorem: -V/T =      2.003769
@    MULPOP   N       0.00; N      -0.00; N       0.00; N       0.00; 
   3  Level shift: doubly occupied orbital energies shifted by -2.50D-02
 -----------------------------------------------------------------------------
@  4    -217.608118313        4.94727D-02   -3.68D-03    4
      Virial theorem: -V/T =      2.003230
@    MULPOP   N      -0.00; N       0.00; N      -0.00; N       0.00; 
   4  Level shift: doubly occupied orbital energies shifted by -1.25D-02
 -----------------------------------------------------------------------------
@  5    -217.608403849        1.49998D-02   -2.86D-04    5
      Virial theorem: -V/T =      2.003396
@    MULPOP   N       0.00; N      -0.00; N       0.00; N      -0.00; 
 -----------------------------------------------------------------------------
@  6    -217.608427753        9.32049D-03   -2.39D-05    6
      Virial theorem: -V/T =      2.003406
@    MULPOP   N      -0.00; N       0.00; N      -0.00; N       0.00; 
 -----------------------------------------------------------------------------
@  7    -217.608435289        1.93002D-03   -7.54D-06    7
      Virial theorem: -V/T =      2.003415
@    MULPOP   N       0.00; N      -0.00; N       0.00; N      -0.00; 
 -----------------------------------------------------------------------------
@  8    -217.608435934        3.66635D-04   -6.45D-07    8
      Virial theorem: -V/T =      2.003427
@    MULPOP   N      -0.00; N      -0.00; N       0.00; N       0.00; 
 -----------------------------------------------------------------------------
@  9    -217.608435954        1.42591D-04   -1.96D-08    8
      Virial theorem: -V/T =      2.003427
@    MULPOP   N       0.00; N      -0.00; N       0.00; N      -0.00; 
 -----------------------------------------------------------------------------
@ 10    -217.608435955        3.02019D-05   -1.06D-09    8
      Virial theorem: -V/T =      2.003427
@    MULPOP   N      -0.00; N      -0.00; N       0.00; N      -0.00; 
 -----------------------------------------------------------------------------
@ 11    -217.608435955        6.99028D-06   -8.24D-11    8

@ *** DIIS converged in  11 iterations !
@     Converged SCF energy, gradient:   -217.608435955023    6.99D-06
    - total time used in SIRFCK :              0.00 seconds


 *** SCF orbital energy analysis ***

 Only the 20 lowest virtual orbital energies printed in each symmetry.

 Number of electrons :   28
 Orbital occupations :   14

 Sym       Hartree-Fock orbital energies

1 A     -15.74888004   -15.74797075   -15.74795601   -15.74792931    -1.65182980
         -1.04403161    -1.04066415    -1.03734596    -0.68582065    -0.57018330
         -0.56904421    -0.56784308    -0.53392774    -0.52866356     0.15553655
          0.15654354     0.15742434     0.18553656     0.18721830     0.18897606
          0.24458608     0.31351412     0.31413656     0.31475117     0.32947949
          0.33034542     0.42463474     0.42708233     0.42952787     0.45652766
          0.45690388     0.45741519     0.53730056     0.66294806

    E(LUMO) :     0.15553655 au (symmetry 1)
  - E(HOMO) :    -0.52866356 au (symmetry 1)
  ------------------------------------------
    gap     :     0.68420011 au

 --- Writing SIRIFC interface file

 CPU and wall time for SCF :      51.224      67.764


                       .-----------------------------------.
                       | --- Final results from SIRIUS --- |
                       `-----------------------------------'


@    Spin multiplicity:           1
@    Spatial symmetry:            1 ( irrep  A   in C1  )
@    Total charge of molecule:    0

@    Final HF energy:            -217.608435955023                 
@    Nuclear repulsion:           105.777940462098
@    Electronic energy:          -323.386376417121

@    Final gradient norm:           0.000006990276

 
     Date and time (Linux)  : Sun Jan 21 18:28:27 2018
     Host name              : vladimir-Kubuntu-16                     

File label for MO orbitals:  21Jan18   FOCKDIIS

 (Only coefficients > 0.0100 are printed.)

 Molecular orbitals for symmetry species 1  (A  )
 ------------------------------------------------

    Orbital         5        6        7        8        9       10       11
   1 N   :1s     0.0528   0.0648  -0.0184   0.0646   0.0258  -0.0273   0.0291
   3 N   :1s     0.0637   0.0812  -0.0230   0.0810   0.0335  -0.0353   0.0375
   4 N   :1s     0.0367   0.0435  -0.0123   0.0433   0.0171  -0.0182   0.0194
   5 N   :1s    -0.1241  -0.1606   0.0455  -0.1600  -0.0732   0.0782  -0.0833
   6 N   :1s    -0.1914  -0.3070   0.0872  -0.3074  -0.1468   0.1479  -0.1572
   7 N   :1s    -0.0350  -0.1223   0.0349  -0.1239  -0.1200   0.0781  -0.0829
   8 N   :2px    0.0428  -0.0502   0.0009   0.0422  -0.1033   0.0058  -0.0771
   9 N   :2py   -0.0000  -0.0136  -0.0925  -0.0126  -0.0000   0.0555   0.1081
  10 N   :2pz   -0.0432  -0.0441  -0.0013   0.0521   0.1016  -0.1426   0.0790
  11 N   :2px   -0.0482   0.0463   0.0013  -0.0542   0.1056  -0.0029   0.0780
  12 N   :2py    0.0000   0.0148   0.1004   0.0137   0.0000  -0.0585  -0.1141
  13 N   :2pz    0.0485   0.0561  -0.0009  -0.0482  -0.1038   0.1472  -0.0800
  14 N   :2px   -0.0261   0.0299   0.0013  -0.0391   0.0870  -0.0168   0.0855
  15 N   :2py    0.0000   0.0100   0.0687   0.0095   0.0000  -0.0527  -0.1027
  16 N   :2pz    0.0261   0.0398  -0.0013  -0.0312  -0.0852   0.1463  -0.0870
  17 N   :2px   -0.0015   0.0030  -0.0001  -0.0023   0.0280  -0.0163   0.0343
  18 N   :2py   -0.0000   0.0007   0.0054   0.0008   0.0000  -0.0132  -0.0259
  19 N   :2pz    0.0014   0.0025   0.0001  -0.0032  -0.0276   0.0488  -0.0347
  25 N   :3d2-  -0.0001   0.0004   0.0146   0.0036  -0.0000  -0.0037  -0.0101
  26 N   :3d1-  -0.0001  -0.0039  -0.0145  -0.0003  -0.0000   0.0070   0.0107
  27 N   :3d0   -0.0032  -0.0133  -0.0014   0.0125   0.0046  -0.0126  -0.0005
  28 N   :3d1+   0.0110   0.0004  -0.0018  -0.0000  -0.0163   0.0012  -0.0034
  30 N   :3d2-  -0.0000  -0.0006   0.0124   0.0041  -0.0000  -0.0037  -0.0106
  31 N   :3d1-  -0.0000  -0.0042  -0.0123   0.0007  -0.0000   0.0076   0.0113
  32 N   :3d0   -0.0032  -0.0123  -0.0018   0.0097   0.0053  -0.0151   0.0011
  33 N   :3d1+   0.0111   0.0035  -0.0034   0.0032  -0.0193   0.0071  -0.0101
  58 N   :1s     0.0525  -0.0694   0.0494   0.0387   0.0259   0.0464   0.0090
  59 N   :1s     0.0075  -0.0101   0.0072   0.0056   0.0039   0.0070   0.0014
  60 N   :1s     0.0632  -0.0869   0.0619   0.0485   0.0335   0.0600   0.0117
  61 N   :1s     0.0365  -0.0465   0.0331   0.0259   0.0171   0.0311   0.0061
  62 N   :1s    -0.1233   0.1718  -0.1224  -0.0957  -0.0732  -0.1332  -0.0259
  63 N   :1s    -0.1901   0.3287  -0.2343  -0.1838  -0.1468  -0.2511  -0.0487
  64 N   :1s    -0.0346   0.1312  -0.0940  -0.0742  -0.1206  -0.1325  -0.0259
  65 N   :2px   -0.0490  -0.0402  -0.0237  -0.0272   0.1171   0.1274   0.1013
  66 N   :2py    0.0284  -0.0434  -0.0707   0.0036  -0.0676  -0.0859   0.0774
  67 N   :2pz   -0.0210   0.0211  -0.0287   0.0808   0.0491   0.0931  -0.0375
  68 N   :2px    0.0552   0.0337   0.0329   0.0352  -0.1197  -0.1282  -0.1056
  69 N   :2py   -0.0320   0.0530   0.0726  -0.0072   0.0691   0.0870  -0.0822
  70 N   :2pz    0.0236  -0.0273   0.0342  -0.0854  -0.0501  -0.0955   0.0400
  71 N   :2px    0.0297   0.0207   0.0241   0.0256  -0.0982  -0.1431  -0.1003
  72 N   :2py   -0.0172   0.0375   0.0487  -0.0057   0.0567   0.0941  -0.0708
  73 N   :2pz    0.0126  -0.0196   0.0241  -0.0582  -0.0410  -0.0975   0.0339
  74 N   :2px    0.0017   0.0024   0.0013   0.0016  -0.0316  -0.0592  -0.0295
  75 N   :2py   -0.0010   0.0024   0.0041  -0.0002   0.0183   0.0370  -0.0150
  76 N   :2pz    0.0007  -0.0012   0.0017  -0.0048  -0.0133  -0.0344   0.0066
  82 N   :3d2-   0.0083  -0.0038  -0.0080   0.0046  -0.0124  -0.0021   0.0069
  85 N   :3d1+  -0.0062   0.0023  -0.0082   0.0135   0.0090   0.0042  -0.0005
  86 N   :3d2+  -0.0048  -0.0118  -0.0122  -0.0062   0.0072  -0.0002   0.0134
  87 N   :3d2-   0.0084  -0.0054  -0.0041   0.0057  -0.0146  -0.0100   0.0060
  90 N   :3d1+  -0.0062   0.0044  -0.0086   0.0115   0.0106   0.0101   0.0007
  91 N   :3d2+  -0.0048  -0.0088  -0.0114  -0.0070   0.0084   0.0044   0.0148
 115 N   :1s     0.0532   0.0382   0.0492  -0.0693   0.0258  -0.0090   0.0076
 116 N   :1s     0.0076   0.0055   0.0071  -0.0101   0.0039  -0.0014   0.0011
 117 N   :1s     0.0641   0.0479   0.0616  -0.0869   0.0334  -0.0116   0.0098
 118 N   :1s     0.0370   0.0257   0.0330  -0.0465   0.0171  -0.0060   0.0051
 119 N   :1s    -0.1249  -0.0947  -0.1217   0.1717  -0.0732   0.0257  -0.0217
 120 N   :1s    -0.1926  -0.1811  -0.2334   0.3297  -0.1469   0.0489  -0.0412
 121 N   :1s    -0.0354  -0.0720  -0.0934   0.1326  -0.1194   0.0259  -0.0216
 122 N   :2px    0.0206  -0.0817   0.0286  -0.0208  -0.0499  -0.1033   0.0414
 123 N   :2py    0.0289   0.0036  -0.0713  -0.0432  -0.0690   0.0861   0.0861
 124 N   :2pz    0.0499   0.0287   0.0241   0.0424  -0.1184   0.0357  -0.1043
 125 N   :2px   -0.0232   0.0864  -0.0341   0.0268   0.0510   0.1095  -0.0441
 126 N   :2py   -0.0325  -0.0072   0.0733   0.0529   0.0705  -0.0901  -0.0914
 127 N   :2pz   -0.0561  -0.0367  -0.0334  -0.0358   0.1210  -0.0364   0.1090
 128 N   :2px   -0.0126   0.0583  -0.0240   0.0192   0.0422   0.0962  -0.0377
 129 N   :2py   -0.0176  -0.0055   0.0492   0.0375   0.0581  -0.0842  -0.0798
 130 N   :2pz   -0.0304  -0.0260  -0.0244  -0.0224   0.0998  -0.0380   0.1028
 131 N   :2px   -0.0007   0.0047  -0.0016   0.0011   0.0136   0.0222  -0.0079
 132 N   :2py   -0.0010  -0.0002   0.0042   0.0024   0.0187  -0.0238  -0.0180
 133 N   :2pz   -0.0017  -0.0015  -0.0013  -0.0027   0.0323  -0.0141   0.0300
 140 N   :3d1-  -0.0085  -0.0047   0.0081   0.0037   0.0126  -0.0093  -0.0070
 141 N   :3d0   -0.0063  -0.0103  -0.0080  -0.0109   0.0093  -0.0010   0.0160
 142 N   :3d1+  -0.0060   0.0139  -0.0081   0.0022   0.0091   0.0105  -0.0009
 143 N   :3d2+   0.0012   0.0049  -0.0108  -0.0050  -0.0018   0.0102   0.0015
 145 N   :3d1-  -0.0086  -0.0057   0.0042   0.0053   0.0149  -0.0114  -0.0063
 146 N   :3d0   -0.0064  -0.0101  -0.0078  -0.0071   0.0110  -0.0020   0.0179
 147 N   :3d1+  -0.0062   0.0116  -0.0086   0.0042   0.0108   0.0098   0.0001
 148 N   :3d2+   0.0012   0.0034  -0.0097  -0.0057  -0.0021   0.0110   0.0011
 172 N   :1s     0.0528  -0.0342  -0.0802  -0.0334   0.0258  -0.0099  -0.0457
 173 N   :1s     0.0075  -0.0050  -0.0116  -0.0048   0.0039  -0.0015  -0.0069
 174 N   :1s     0.0637  -0.0429  -0.1005  -0.0419   0.0335  -0.0129  -0.0590
 175 N   :1s     0.0367  -0.0229  -0.0537  -0.0224   0.0171  -0.0067  -0.0306
 176 N   :1s    -0.1241   0.0847   0.1986   0.0828  -0.0732   0.0285   0.1310
 177 N   :1s    -0.1914   0.1622   0.3806   0.1588  -0.1468   0.0538   0.2470
 178 N   :1s    -0.0350   0.0647   0.1525   0.0639  -0.1200   0.0286   0.1302
 179 N   :2px   -0.0145  -0.0853   0.0309   0.0082   0.0344  -0.1349  -0.0179
 180 N   :2py   -0.0573   0.0167  -0.0227   0.0160   0.1365  -0.0048  -0.1773
 181 N   :2pz    0.0141  -0.0083  -0.0302   0.0867  -0.0338   0.0014   0.0089
 182 N   :2px    0.0163   0.0913  -0.0370  -0.0104  -0.0352   0.1418   0.0172
 183 N   :2py    0.0645  -0.0239   0.0110  -0.0231  -0.1396   0.0036   0.1799
 184 N   :2pz   -0.0159   0.0105   0.0362  -0.0927   0.0346  -0.0010  -0.0076
 185 N   :2px    0.0088   0.0619  -0.0260  -0.0074  -0.0289   0.1290   0.0236
 186 N   :2py    0.0348  -0.0176   0.0046  -0.0170  -0.1148   0.0099   0.1937
 187 N   :2pz   -0.0086   0.0075   0.0255  -0.0633   0.0285  -0.0026  -0.0145
 188 N   :2px    0.0005   0.0049  -0.0017  -0.0005  -0.0093   0.0336   0.0128
 189 N   :2py    0.0019  -0.0009   0.0015  -0.0008  -0.0371   0.0083   0.0755
 190 N   :2pz   -0.0005   0.0005   0.0017  -0.0051   0.0093  -0.0021  -0.0102
 196 N   :3d2-  -0.0049  -0.0169   0.0058   0.0040   0.0073  -0.0156   0.0014
 197 N   :3d1-   0.0048  -0.0040  -0.0057   0.0170  -0.0072  -0.0004  -0.0025
 200 N   :3d2+   0.0091  -0.0074   0.0045  -0.0047  -0.0136  -0.0089   0.0053
 201 N   :3d2-  -0.0050  -0.0136   0.0066   0.0048   0.0086  -0.0172  -0.0031
 202 N   :3d1-   0.0049  -0.0048  -0.0065   0.0138  -0.0085   0.0006   0.0017
 205 N   :3d2+   0.0092  -0.0071   0.0003  -0.0060  -0.0161  -0.0077   0.0139

    Orbital        12       13       14       15       16       17       18
   1 N   :1s     0.0267  -0.0006   0.0005   0.0301  -0.0017   0.0280  -0.0017
   3 N   :1s     0.0345  -0.0008   0.0007   0.0434  -0.0025   0.0407  -0.0026
   4 N   :1s     0.0179  -0.0005   0.0004   0.0052  -0.0003   0.0042   0.0001
   5 N   :1s    -0.0766   0.0019  -0.0017   0.0011  -0.0001   0.0048  -0.0021
   6 N   :1s    -0.1441   0.0034  -0.0029  -0.0878   0.0048  -0.0964   0.0021
   7 N   :1s    -0.0759   0.0009  -0.0006  -4.0610   0.2342  -3.9323   0.3349
   8 N   :2px   -0.1382   0.0833  -0.0854   0.0604   0.0002   0.0381   0.1044
   9 N   :2py   -0.0606   0.1169   0.1192  -0.0050  -0.0181   0.0033  -0.1541
  10 N   :2pz    0.0035   0.0813  -0.0839  -0.0263   0.0050  -0.0416   0.1063
  11 N   :2px    0.1427  -0.0883   0.0905  -0.0484  -0.0009   0.0070  -0.1191
  12 N   :2py    0.0640  -0.1240  -0.1265   0.0074   0.0544  -0.0036   0.1718
  13 N   :2pz   -0.0006  -0.0864   0.0891  -0.0209  -0.0023   0.0337  -0.1157
  14 N   :2px    0.1428  -0.0876   0.0905  -1.0518   0.0611  -0.6538  -0.0532
  15 N   :2py    0.0576  -0.1221  -0.1256   0.0229   0.3718  -0.0013   0.1773
  16 N   :2pz   -0.0145  -0.0844   0.0879   0.6761  -0.0383   1.0221  -0.1889
  17 N   :2px    0.0478  -0.0294   0.0308  -1.2588   0.0647  -0.5805  -0.3527
  18 N   :2py    0.0146  -0.0409  -0.0426   0.0489   0.6471  -0.0111   0.6265
  19 N   :2pz   -0.0154  -0.0281   0.0297   0.5741  -0.0410   1.1936  -0.5024
  25 N   :3d2-   0.0076  -0.0009  -0.0142  -0.0064  -0.0093   0.0057  -0.0102
  26 N   :3d1-  -0.0039   0.0141   0.0008  -0.0050   0.0096   0.0054   0.0025
  27 N   :3d0   -0.0101   0.0132  -0.0052  -0.0058   0.0051   0.0100  -0.0053
  29 N   :3d2+   0.0083   0.0018   0.0123   0.0102   0.0080  -0.0004   0.0081
  30 N   :3d2-   0.0082  -0.0030  -0.0186   0.0317   0.1223  -0.0303  -0.0089
  31 N   :3d1-  -0.0039   0.0183   0.0032   0.0192  -0.1236  -0.0314  -0.0051
  32 N   :3d0   -0.0089   0.0176  -0.0086   0.0177  -0.0278  -0.1903   0.0089
  33 N   :3d1+  -0.0068   0.0056   0.0053   0.2878  -0.0448   0.2825  -0.0188
  34 N   :3d2+   0.0119   0.0006   0.0160  -0.2077  -0.0290  -0.0767   0.0211
  43 N   :4f2-  -0.0029   0.0017   0.0016   0.0043  -0.0148   0.0045   0.0003
  45 N   :4f0    0.0023  -0.0044  -0.0017  -0.0127   0.0030   0.0039  -0.0007
  46 N   :4f1+  -0.0033   0.0000  -0.0026  -0.0093   0.0011  -0.0253   0.0002
  47 N   :4f2+  -0.0012  -0.0002  -0.0014   0.0217  -0.0008   0.0141  -0.0019
  48 N   :4f3+   0.0020   0.0022   0.0037  -0.0119  -0.0011  -0.0026   0.0030
  58 N   :1s     0.0090   0.0004   0.0003  -0.0343  -0.0174   0.0151   0.0014
  60 N   :1s     0.0116   0.0005   0.0004  -0.0495  -0.0251   0.0219   0.0021
  62 N   :1s    -0.0259  -0.0011  -0.0010  -0.0012  -0.0013   0.0023   0.0016
  63 N   :1s    -0.0486  -0.0019  -0.0017   0.1029   0.0533  -0.0512  -0.0015
  64 N   :1s    -0.0255  -0.0016  -0.0001   4.6269   2.3772  -2.1047  -0.2734
  65 N   :2px    0.0338  -0.0771   0.0619   0.0687   0.0237  -0.0182   0.0958
  66 N   :2py   -0.0863  -0.1505  -0.0098  -0.0256  -0.0304   0.0104   0.0360
  67 N   :2pz   -0.0995  -0.0185  -0.1580   0.0084   0.0059  -0.0317  -0.1785
  68 N   :2px   -0.0345   0.0818  -0.0656  -0.0425   0.0102  -0.0082  -0.1092
  69 N   :2py    0.0903   0.1597   0.0103  -0.0085   0.0481   0.0054  -0.0388
  70 N   :2pz    0.1054   0.0196   0.1676   0.0193   0.0077   0.0570   0.1973
  71 N   :2px   -0.0367   0.0807  -0.0656  -1.2580  -0.4347   0.4146  -0.0462
  72 N   :2py    0.0845   0.1573   0.0105   0.5320   0.6325  -0.2333  -0.0794
  73 N   :2pz    0.0929   0.0193   0.1660  -0.3581  -0.1879   0.5458   0.2258
  74 N   :2px   -0.0138   0.0267  -0.0223  -1.4311  -0.3656   0.3659  -0.3199
  75 N   :2py    0.0239   0.0526   0.0036   0.4796   0.8744  -0.2026  -0.1881
  76 N   :2pz    0.0216   0.0064   0.0563  -0.2762  -0.1537   0.8157   0.7437
  83 N   :3d1-   0.0065  -0.0112  -0.0017  -0.0002   0.0103   0.0011  -0.0026
  85 N   :3d1+  -0.0100  -0.0039  -0.0168  -0.0007   0.0010   0.0168   0.0107
  86 N   :3d2+  -0.0046  -0.0134   0.0093  -0.0126   0.0076  -0.0041  -0.0083
  87 N   :3d2-  -0.0114  -0.0033  -0.0064  -0.2462  -0.1849   0.0672   0.0195
  88 N   :3d1-   0.0066  -0.0140  -0.0003  -0.0636  -0.1196   0.0737   0.0104
  89 N   :3d0   -0.0104  -0.0114  -0.0063  -0.1337  -0.1113  -0.0171   0.0034
  90 N   :3d1+  -0.0092  -0.0055  -0.0221   0.1516   0.0499  -0.2198   0.0010
  91 N   :3d2+  -0.0040  -0.0187   0.0121   0.2280  -0.0511  -0.0224  -0.0164
  99 N   :4f3-   0.0017  -0.0034   0.0030   0.0236   0.0101  -0.0039  -0.0031
 100 N   :4f2-  -0.0025   0.0024   0.0004   0.0107   0.0114  -0.0130  -0.0017
 101 N   :4f1-  -0.0037  -0.0003   0.0020  -0.0106  -0.0073  -0.0014  -0.0000
 102 N   :4f0   -0.0014   0.0031  -0.0026   0.0130   0.0083  -0.0116   0.0019
 103 N   :4f1+   0.0030   0.0031   0.0022   0.0058   0.0033   0.0108  -0.0009
 105 N   :4f3+   0.0031   0.0014  -0.0025  -0.0099   0.0121   0.0005   0.0018
 115 N   :1s    -0.0463  -0.0003  -0.0004   0.0120  -0.0203  -0.0337   0.0003
 117 N   :1s    -0.0599  -0.0004  -0.0005   0.0174  -0.0294  -0.0489   0.0005
 118 N   :1s    -0.0310  -0.0003  -0.0002   0.0021  -0.0032  -0.0051  -0.0000
 119 N   :1s     0.1328   0.0011   0.0010   0.0004  -0.0027  -0.0056   0.0005
 120 N   :1s     0.2507   0.0019   0.0018  -0.0336   0.0654   0.1112  -0.0009
 121 N   :1s     0.1320   0.0002   0.0016  -1.6221   2.8064   4.7209  -0.0691
 122 N   :2px    0.0891   0.1535   0.0201   0.0183  -0.0155  -0.0274  -0.0761
 123 N   :2py    0.0875  -0.0114  -0.1437   0.0091  -0.0337  -0.0260   0.0673
 124 N   :2pz    0.1290  -0.0564   0.0771   0.0167  -0.0238  -0.0557  -0.0070
 125 N   :2px   -0.0915  -0.1629  -0.0214  -0.0446   0.0023   0.0029   0.0874
 126 N   :2py   -0.0887   0.0122   0.1525   0.0059   0.0484  -0.0101  -0.0756
 127 N   :2pz   -0.1299   0.0600  -0.0818   0.0064  -0.0133   0.0299   0.0079
 128 N   :2px   -0.0942  -0.1608  -0.0212  -0.4960   0.2506   0.3936   0.1075
 129 N   :2py   -0.0963   0.0117   0.1514  -0.1601   0.6859   0.5256  -0.0962
 130 N   :2pz   -0.1449   0.0585  -0.0811  -0.2994   0.5359   1.2745  -0.0136
 131 N   :2px   -0.0336  -0.0538  -0.0073  -0.7356   0.2470   0.3764   0.3461
 132 N   :2py   -0.0381   0.0039   0.0514  -0.1228   0.9193   0.4579  -0.2992
 133 N   :2pz   -0.0602   0.0196  -0.0278  -0.2566   0.4600   1.4204   0.0027
 139 N   :3d2-  -0.0036   0.0021   0.0110  -0.0015  -0.0103   0.0006   0.0025
 141 N   :3d0    0.0009   0.0092  -0.0060  -0.0047   0.0018  -0.0107   0.0008
 142 N   :3d1+  -0.0037  -0.0169  -0.0037   0.0160  -0.0005  -0.0030  -0.0058
 143 N   :3d2+  -0.0014   0.0021  -0.0149   0.0003   0.0119  -0.0055  -0.0035
 144 N   :3d2-  -0.0072   0.0007   0.0137  -0.0623   0.1295   0.0600   0.0045
 145 N   :3d1-  -0.0100   0.0062   0.0027  -0.0390   0.2051   0.2467  -0.0095
 146 N   :3d0   -0.0048   0.0124  -0.0097   0.0095   0.0282   0.2690  -0.0062
 147 N   :3d1+  -0.0095  -0.0221  -0.0054  -0.2051   0.0706   0.1577   0.0060
 148 N   :3d2+  -0.0004   0.0009  -0.0192  -0.0342  -0.1206   0.0089   0.0044
 157 N   :4f2-  -0.0005   0.0005   0.0023  -0.0117   0.0129   0.0105  -0.0017
 158 N   :4f1-   0.0003   0.0023  -0.0033  -0.0009   0.0134   0.0259  -0.0006
 159 N   :4f0    0.0011   0.0030   0.0012   0.0068  -0.0072   0.0115  -0.0005
 160 N   :4f1+   0.0007  -0.0050  -0.0006  -0.0124   0.0016   0.0136   0.0007
 162 N   :4f3+   0.0011  -0.0006  -0.0044   0.0030  -0.0112  -0.0055  -0.0032
 172 N   :1s     0.0108   0.0007  -0.0006  -0.0077   0.0394  -0.0096  -0.0001
 174 N   :1s     0.0140   0.0009  -0.0007  -0.0111   0.0570  -0.0138  -0.0001
 176 N   :1s    -0.0311  -0.0020   0.0017  -0.0008   0.0040  -0.0009   0.0000
 177 N   :1s    -0.0585  -0.0035   0.0029   0.0257  -0.1240   0.0283   0.0001
 178 N   :1s    -0.0306  -0.0024   0.0021   1.0517  -5.4175   1.3208   0.0076
 179 N   :2px    0.0035  -0.1635   0.0039   0.0166  -0.0177   0.0031  -0.1253
 180 N   :2py    0.0087   0.0429   0.0364   0.0116  -0.0767   0.0133   0.0512
 181 N   :2pz   -0.1408  -0.0057   0.1611  -0.0031   0.0129  -0.0252   0.0797
 182 N   :2px   -0.0033   0.1735  -0.0042  -0.0483  -0.0011   0.0031   0.1421
 183 N   :2py   -0.0075  -0.0454  -0.0386   0.0063   0.0294   0.0073  -0.0579
 184 N   :2pz    0.1481   0.0060  -0.1710   0.0001   0.0079   0.0567  -0.0900
 185 N   :2px   -0.0050   0.1710  -0.0041  -0.4241   0.3295  -0.0637   0.1712
 186 N   :2py   -0.0145  -0.0450  -0.0382  -0.2141   1.5741  -0.2924  -0.0710
 187 N   :2pz    0.1357   0.0060  -0.1695   0.0670  -0.2938   0.4486  -0.1043
 188 N   :2px   -0.0029   0.0570  -0.0013  -0.6777   0.3081  -0.0464   0.5545
 189 N   :2py   -0.0100  -0.0154  -0.0127  -0.1689   1.6930  -0.2549  -0.2275
 190 N   :2pz    0.0361   0.0021  -0.0577   0.0664  -0.2537   0.7269  -0.3454
 196 N   :3d2-  -0.0004  -0.0133   0.0055  -0.0120   0.0043   0.0040   0.0056
 197 N   :3d1-  -0.0159  -0.0056   0.0127  -0.0035  -0.0032   0.0131  -0.0022
 199 N   :3d1+  -0.0020   0.0123   0.0121   0.0105   0.0031   0.0101  -0.0089
 200 N   :3d2+   0.0021  -0.0018  -0.0068   0.0001  -0.0115  -0.0034   0.0038
 201 N   :3d2-   0.0008  -0.0189   0.0067   0.1804  -0.1552   0.0018  -0.0108
 202 N   :3d1-  -0.0179  -0.0068   0.0184  -0.0030   0.1404  -0.1896   0.0048
 203 N   :3d0    0.0084  -0.0080   0.0012  -0.0091   0.2019  -0.0146  -0.0023
 204 N   :3d1+  -0.0021   0.0151   0.0150  -0.0837   0.0113  -0.0805  -0.0006
 205 N   :3d2+   0.0001  -0.0041  -0.0088  -0.0064   0.3443  -0.0296  -0.0077
 213 N   :4f3-  -0.0006  -0.0010   0.0020  -0.0060  -0.0213   0.0013   0.0020
 215 N   :4f1-  -0.0048   0.0022  -0.0017   0.0013  -0.0175  -0.0053  -0.0008
 216 N   :4f0   -0.0024  -0.0018   0.0033  -0.0026   0.0154  -0.0130  -0.0013
 218 N   :4f2+  -0.0038  -0.0029   0.0002   0.0025   0.0082  -0.0119   0.0025
 219 N   :4f3+   0.0000  -0.0029   0.0033   0.0165  -0.0186   0.0005  -0.0012

    Orbital        19       20       21       22       23       24
   1 N   :1s    -0.0003  -0.0016   0.0148   0.0019   0.0001  -0.0014
   3 N   :1s    -0.0004  -0.0024   0.0188  -0.0000  -0.0000   0.0007
   4 N   :1s     0.0000   0.0002   0.0123   0.0102   0.0006  -0.0093
   5 N   :1s    -0.0004  -0.0023  -0.0449  -0.0505  -0.0028   0.0469
   6 N   :1s     0.0004   0.0019  -0.1105  -0.1636  -0.0087   0.1419
   7 N   :1s     0.0590   0.3239   0.5782   2.8704   0.1639  -2.7902
   8 N   :2px    0.0189   0.1068  -0.0450   0.0585   0.0048  -0.0826
   9 N   :2py    0.0005   0.1499  -0.0000   0.0008  -0.0257  -0.0007
  10 N   :2pz    0.0192   0.1081   0.0442  -0.0846  -0.0034   0.0575
  11 N   :2px   -0.0217  -0.1229  -0.0366  -0.0945  -0.0040   0.0412
  12 N   :2py   -0.0008  -0.1688   0.0000   0.0002  -0.0481  -0.0026
  13 N   :2pz   -0.0210  -0.1192   0.0367   0.0462   0.0038  -0.0892
  14 N   :2px   -0.0110  -0.0687   0.2766   0.6886   0.0178  -0.0674
  15 N   :2py   -0.0037  -0.1867  -0.0000  -0.0077   0.6017   0.0268
  16 N   :2pz   -0.0348  -0.1995  -0.2783  -0.0756  -0.0253   0.6583
  17 N   :2px   -0.0668  -0.3937  -0.7076   1.0024   0.0646  -1.3305
  18 N   :2py   -0.0075  -0.6500   0.0001  -0.0006  -0.3409  -0.0206
  19 N   :2pz   -0.0931  -0.5382   0.7028  -1.3212  -0.0691   0.9683
  25 N   :3d2-  -0.0006   0.0025   0.0001  -0.0034   0.0170  -0.0025
  26 N   :3d1-  -0.0008  -0.0108   0.0001  -0.0032  -0.0168  -0.0043
  27 N   :3d0   -0.0013  -0.0110   0.0055  -0.0218  -0.0034  -0.0078
  28 N   :3d1+   0.0003  -0.0020  -0.0192   0.0259  -0.0019  -0.0249
  29 N   :3d2+   0.0010  -0.0001   0.0096  -0.0045  -0.0058   0.0208
  30 N   :3d2-  -0.0022  -0.0084   0.0001  -0.0204   0.0883  -0.0145
  31 N   :3d1-   0.0000  -0.0017   0.0001  -0.0183  -0.0847  -0.0223
  32 N   :3d0    0.0019   0.0077  -0.0099  -0.0036  -0.0114  -0.1437
  33 N   :3d1+  -0.0037  -0.0269   0.0423  -0.2582  -0.0337   0.2532
  34 N   :3d2+   0.0028   0.0037  -0.0225   0.1770  -0.0214  -0.0860
  42 N   :4f3-  -0.0005  -0.0019   0.0010  -0.0071   0.0109   0.0015
  43 N   :4f2-   0.0001  -0.0005   0.0008  -0.0039  -0.0179   0.0027
  45 N   :4f0   -0.0014   0.0023   0.0012   0.0136   0.0047   0.0068
  46 N   :4f1+  -0.0016   0.0021   0.0058   0.0007   0.0025  -0.0203
  47 N   :4f2+  -0.0035  -0.0007  -0.0056  -0.0164   0.0005   0.0074
  48 N   :4f3+  -0.0028  -0.0008   0.0022   0.0107  -0.0040   0.0004
  58 N   :1s     0.0003   0.0003   0.0149  -0.0021   0.0010  -0.0005
  60 N   :1s     0.0004   0.0005   0.0189   0.0003  -0.0003   0.0004
  61 N   :1s     0.0000  -0.0000   0.0125  -0.0117   0.0063  -0.0042
  62 N   :1s     0.0001   0.0004  -0.0463   0.0583  -0.0314   0.0211
  63 N   :1s    -0.0003   0.0002  -0.1115   0.1829  -0.1019   0.0630
  64 N   :1s    -0.0435  -0.0612   0.6124  -3.3241   1.8689  -1.2675
  65 N   :2px    0.0805  -0.0041   0.0505   0.0876  -0.0635   0.0442
  66 N   :2py    0.1743  -0.0653  -0.0293  -0.0641   0.0120  -0.0267
  67 N   :2pz    0.0493  -0.0801   0.0212   0.0486  -0.0266  -0.0090
  68 N   :2px   -0.0905   0.0045   0.0434  -0.1084   0.0321  -0.0215
  69 N   :2py   -0.1952   0.0731  -0.0250   0.0361  -0.0673   0.0104
  70 N   :2pz   -0.0557   0.0877   0.0184  -0.0265   0.0160  -0.0557
  71 N   :2px   -0.0864   0.0246  -0.3292   0.7072  -0.0418   0.0307
  72 N   :2py   -0.2164   0.0645   0.1886  -0.0725   0.6281   0.0082
  73 N   :2pz   -0.0583   0.0809  -0.1399   0.0450  -0.0421   0.6097
  74 N   :2px   -0.3266   0.0425   0.8000   1.4512  -1.0132   0.6911
  75 N   :2py   -0.7417   0.2598  -0.4642  -1.0139   0.2539  -0.4171
  76 N   :2pz   -0.2082   0.3119   0.3387   0.7413  -0.4154  -0.0446
  82 N   :3d2-  -0.0029   0.0018  -0.0145  -0.0244   0.0054  -0.0154
  83 N   :3d1-  -0.0070   0.0022  -0.0061  -0.0159  -0.0028   0.0001
  84 N   :3d0   -0.0062   0.0034  -0.0071  -0.0102   0.0007  -0.0148
  85 N   :3d1+  -0.0048   0.0053   0.0107   0.0204  -0.0151  -0.0118
  86 N   :3d2+  -0.0091   0.0015   0.0084   0.0015  -0.0242   0.0101
  87 N   :3d2-   0.0092   0.0050   0.0301   0.2224  -0.1683   0.0534
  88 N   :3d1-  -0.0055   0.0054   0.0127   0.0643  -0.0988   0.0549
  89 N   :3d0   -0.0042   0.0076   0.0157   0.1180  -0.0938  -0.0096
  90 N   :3d1+  -0.0005   0.0093  -0.0212  -0.1470   0.0651  -0.1588
  91 N   :3d2+  -0.0005  -0.0062  -0.0170  -0.1967  -0.0135  -0.0228
  99 N   :4f3-  -0.0024  -0.0016   0.0055  -0.0184   0.0055   0.0022
 100 N   :4f2-   0.0022   0.0021   0.0046  -0.0041   0.0108  -0.0102
 102 N   :4f0    0.0002  -0.0026   0.0034  -0.0065   0.0078  -0.0100
 103 N   :4f1+   0.0017  -0.0015   0.0022  -0.0043   0.0042   0.0142
 104 N   :4f2+   0.0012  -0.0026  -0.0033   0.0053   0.0096   0.0103
 105 N   :4f3+  -0.0006   0.0000   0.0004   0.0121   0.0143  -0.0006
 115 N   :1s     0.0003   0.0013   0.0146   0.0010   0.0011   0.0018
 117 N   :1s     0.0004   0.0020   0.0186   0.0001  -0.0001  -0.0005
 118 N   :1s     0.0000  -0.0001   0.0120   0.0049   0.0063   0.0111
 119 N   :1s     0.0002   0.0018  -0.0433  -0.0243  -0.0317  -0.0556
 120 N   :1s    -0.0005  -0.0019  -0.1099  -0.0789  -0.0956  -0.1744
 121 N   :1s    -0.0455  -0.2647   0.5443   1.3643   1.7964   3.2984
 122 N   :2px    0.0492  -0.1804  -0.0219  -0.0047   0.0243   0.0459
 123 N   :2py   -0.1742  -0.0343  -0.0301   0.0266   0.0089   0.0649
 124 N   :2pz    0.0802   0.0953  -0.0520   0.0452   0.0625   0.0861
 125 N   :2px   -0.0546   0.2046  -0.0170  -0.0603  -0.0141  -0.0230
 126 N   :2py    0.1952   0.0399  -0.0239  -0.0139  -0.0666  -0.0350
 127 N   :2pz   -0.0895  -0.1051  -0.0410  -0.0253  -0.0302  -0.1055
 128 N   :2px   -0.0597   0.2060   0.1282   0.6267   0.0376   0.0368
 129 N   :2py    0.2010   0.0061   0.1813   0.0181   0.6372   0.0743
 130 N   :2pz   -0.1068  -0.1813   0.3088   0.0469   0.0303   0.6894
 131 N   :2px   -0.2054   0.7650  -0.3427  -0.0426   0.3947   0.7575
 132 N   :2py    0.7219   0.1086  -0.4760   0.4243   0.2091   1.0348
 133 N   :2pz   -0.3489  -0.4815  -0.8213   0.7255   0.9810   1.4343
 139 N   :3d2-  -0.0069  -0.0021   0.0062   0.0006   0.0034  -0.0158
 140 N   :3d1-  -0.0025   0.0034   0.0149  -0.0162  -0.0042  -0.0243
 141 N   :3d0    0.0048   0.0094   0.0109  -0.0175  -0.0212  -0.0059
 142 N   :3d1+   0.0046  -0.0111   0.0106   0.0122  -0.0149  -0.0208
 143 N   :3d2+   0.0099   0.0026  -0.0021   0.0078  -0.0119   0.0078
 144 N   :3d2-  -0.0084   0.0021  -0.0146   0.0594   0.0974   0.0645
 145 N   :3d1-   0.0032  -0.0138  -0.0347   0.0601   0.1622   0.2226
 146 N   :3d0   -0.0062  -0.0157  -0.0254   0.0152   0.0324   0.2195
 147 N   :3d1+   0.0004  -0.0091  -0.0258   0.1665   0.0592   0.1429
 148 N   :3d2+   0.0067   0.0112   0.0038   0.0191  -0.0883  -0.0067
 157 N   :4f2-  -0.0024   0.0007   0.0041   0.0111   0.0107   0.0041
 158 N   :4f1-   0.0016  -0.0004   0.0052  -0.0028   0.0066   0.0192
 159 N   :4f0   -0.0017   0.0004   0.0012  -0.0102  -0.0089   0.0112
 160 N   :4f1+   0.0009  -0.0031   0.0040   0.0148  -0.0032   0.0077
 161 N   :4f2+   0.0013   0.0011  -0.0023   0.0113  -0.0122   0.0033
 162 N   :4f3+   0.0012   0.0014  -0.0006  -0.0023  -0.0122  -0.0020
 172 N   :1s    -0.0002  -0.0000   0.0148  -0.0006  -0.0022   0.0004
 174 N   :1s    -0.0003  -0.0000   0.0188   0.0000   0.0005  -0.0002
 175 N   :1s    -0.0001  -0.0000   0.0123  -0.0033  -0.0132   0.0025
 176 N   :1s     0.0001   0.0000  -0.0448   0.0165   0.0659  -0.0122
 177 N   :1s     0.0005   0.0001  -0.1106   0.0458   0.2065  -0.0442
 178 N   :1s     0.0300   0.0020   0.5786  -0.8994  -3.8294   0.7703
 179 N   :2px   -0.1486   0.0776   0.0148  -0.0140   0.0376  -0.0077
 180 N   :2py   -0.0002  -0.0502   0.0594   0.0352   0.1252  -0.0320
 181 N   :2pz   -0.1486  -0.1230  -0.0149  -0.0087  -0.0364  -0.0209
 182 N   :2px    0.1668  -0.0862   0.0125  -0.0535  -0.0204   0.0040
 183 N   :2py    0.0003   0.0557   0.0489  -0.0177  -0.1270   0.0140
 184 N   :2pz    0.1661   0.1362  -0.0120   0.0045   0.0219  -0.0513
 185 N   :2px    0.1796  -0.0840  -0.0961   0.6092   0.0434  -0.0064
 186 N   :2py   -0.0089   0.0523  -0.3700   0.0271   0.7312   0.0053
 187 N   :2pz    0.1766   0.1272   0.0889  -0.0072  -0.0561   0.6092
 188 N   :2px    0.6274  -0.3153   0.2359  -0.1857   0.5985  -0.1233
 189 N   :2py   -0.0109   0.2009   0.9400   0.5572   2.0508  -0.5051
 190 N   :2pz    0.6211   0.4900  -0.2342  -0.1377  -0.5776  -0.2359
 196 N   :3d2-   0.0103  -0.0022   0.0087  -0.0168   0.0191  -0.0076
 197 N   :3d1-   0.0103   0.0052  -0.0083  -0.0081  -0.0182  -0.0172
 198 N   :3d0    0.0028  -0.0017  -0.0093  -0.0070  -0.0149   0.0087
 200 N   :3d2+  -0.0016  -0.0040  -0.0159  -0.0143  -0.0253   0.0126
 201 N   :3d2-   0.0015   0.0007  -0.0176  -0.1435  -0.1366   0.0080
 202 N   :3d1-   0.0021   0.0059   0.0200   0.0107   0.1368  -0.1314
 203 N   :3d0    0.0086  -0.0005   0.0210   0.0218   0.1776  -0.0105
 204 N   :3d1+   0.0014   0.0149   0.0047   0.0601   0.0167  -0.0570
 205 N   :3d2+  -0.0089  -0.0047   0.0349   0.0279   0.3041  -0.0231
 213 N   :4f3-   0.0015   0.0016   0.0045   0.0077  -0.0155  -0.0027
 214 N   :4f2-  -0.0002  -0.0031   0.0022  -0.0106   0.0030   0.0103
 215 N   :4f1-  -0.0014  -0.0008   0.0036   0.0002  -0.0121  -0.0072
 216 N   :4f0    0.0023  -0.0005  -0.0018   0.0005   0.0102  -0.0137
 218 N   :4f2+   0.0003   0.0013  -0.0035  -0.0055   0.0050  -0.0119
 219 N   :4f3+   0.0020   0.0003   0.0041  -0.0193  -0.0108  -0.0032

  Total CPU  time used in SIRIUS :  52.75 seconds
  Total wall time used in SIRIUS :  1 minute   9 seconds

 
     Date and time (Linux)  : Sun Jan 21 18:28:27 2018
     Host name              : vladimir-Kubuntu-16                     


                     .---------------------------------------.
                     | End of Wave Function Section (SIRIUS) |
                     `---------------------------------------'

  Total CPU  time used in DALTON:  2 minutes 41 seconds
  Total wall time used in DALTON:  3 minutes  4 seconds

 
     Date and time (Linux)  : Sun Jan 21 18:28:28 2018
     Host name              : vladimir-Kubuntu-16                     
