[Molden Format]
[Title]
 Molden file created by orca_2mkl for BaseName=/home/vladimir/git/molden2qmc/test/N4/ORCA/RHF/cc-pVQZ_QChem/./N4

[Atoms] AU
N    1   7         -1.2141710477         0.0000000000        -1.1929116595 
N    2   7          1.3902700165         0.8023365622        -0.5821231084 
N    3   7         -0.5808226514         0.8023365622         1.3773975481 
N    4   7          0.4047236826        -1.6046731244         0.3976372198 
[GTO]
  1 0
s   9 1.0 
    45840.0000000000         0.2070013119
     6868.0000000000         0.3885023806
     1563.0000000000         0.6693241386
      442.4000000000         1.0760700264
      144.3000000000         1.5891765404
       52.1800000000         2.0467625615
       20.3400000000         2.0957271491
        8.3810000000         1.4068954098
        3.5290000000         0.4024679210
s   9 1.0 
    45840.0000000000        -0.1280239503
     6868.0000000000        -0.2451024263
     1563.0000000000        -0.4185277093
      442.4000000000        -0.6855177236
      144.3000000000        -1.0179501673
       52.1800000000        -1.4038213591
       20.3400000000        -1.5671074566
        8.3810000000        -1.4767088923
        3.5290000000        -0.6121674414
s   1 1.0 
        1.0540000000         0.7413794612
s   1 1.0 
        0.4118000000         0.3663741711
s   1 1.0 
        0.1552000000         0.1762296099
p   3 1.0 
       49.3300000000         5.8003427037
       11.3700000000         6.3555590049
        3.4350000000         5.5883087071
p   1 1.0 
        1.1820000000         1.7567579743
p   1 1.0 
        0.4173000000         0.4780799923
p   1 1.0 
        0.1428000000         0.1251268026
d   1 1.0 
        2.8370000000        17.6796605055
d   1 1.0 
        0.9680000000         2.6930967689
d   1 1.0 
        0.3350000000         0.4205314648
f   1 1.0 
        2.0270000000        27.9525230183
f   1 1.0 
        0.6850000000         2.4339063574
g   1 1.0 
        1.4270000000        17.5039221697

  2 0
s   9 1.0 
    45840.0000000000         0.2070013119
     6868.0000000000         0.3885023806
     1563.0000000000         0.6693241386
      442.4000000000         1.0760700264
      144.3000000000         1.5891765404
       52.1800000000         2.0467625615
       20.3400000000         2.0957271491
        8.3810000000         1.4068954098
        3.5290000000         0.4024679210
s   9 1.0 
    45840.0000000000        -0.1280239503
     6868.0000000000        -0.2451024263
     1563.0000000000        -0.4185277093
      442.4000000000        -0.6855177236
      144.3000000000        -1.0179501673
       52.1800000000        -1.4038213591
       20.3400000000        -1.5671074566
        8.3810000000        -1.4767088923
        3.5290000000        -0.6121674414
s   1 1.0 
        1.0540000000         0.7413794612
s   1 1.0 
        0.4118000000         0.3663741711
s   1 1.0 
        0.1552000000         0.1762296099
p   3 1.0 
       49.3300000000         5.8003427037
       11.3700000000         6.3555590049
        3.4350000000         5.5883087071
p   1 1.0 
        1.1820000000         1.7567579743
p   1 1.0 
        0.4173000000         0.4780799923
p   1 1.0 
        0.1428000000         0.1251268026
d   1 1.0 
        2.8370000000        17.6796605055
d   1 1.0 
        0.9680000000         2.6930967689
d   1 1.0 
        0.3350000000         0.4205314648
f   1 1.0 
        2.0270000000        27.9525230183
f   1 1.0 
        0.6850000000         2.4339063574
g   1 1.0 
        1.4270000000        17.5039221697

  3 0
s   9 1.0 
    45840.0000000000         0.2070013119
     6868.0000000000         0.3885023806
     1563.0000000000         0.6693241386
      442.4000000000         1.0760700264
      144.3000000000         1.5891765404
       52.1800000000         2.0467625615
       20.3400000000         2.0957271491
        8.3810000000         1.4068954098
        3.5290000000         0.4024679210
s   9 1.0 
    45840.0000000000        -0.1280239503
     6868.0000000000        -0.2451024263
     1563.0000000000        -0.4185277093
      442.4000000000        -0.6855177236
      144.3000000000        -1.0179501673
       52.1800000000        -1.4038213591
       20.3400000000        -1.5671074566
        8.3810000000        -1.4767088923
        3.5290000000        -0.6121674414
s   1 1.0 
        1.0540000000         0.7413794612
s   1 1.0 
        0.4118000000         0.3663741711
s   1 1.0 
        0.1552000000         0.1762296099
p   3 1.0 
       49.3300000000         5.8003427037
       11.3700000000         6.3555590049
        3.4350000000         5.5883087071
p   1 1.0 
        1.1820000000         1.7567579743
p   1 1.0 
        0.4173000000         0.4780799923
p   1 1.0 
        0.1428000000         0.1251268026
d   1 1.0 
        2.8370000000        17.6796605055
d   1 1.0 
        0.9680000000         2.6930967689
d   1 1.0 
        0.3350000000         0.4205314648
f   1 1.0 
        2.0270000000        27.9525230183
f   1 1.0 
        0.6850000000         2.4339063574
g   1 1.0 
        1.4270000000        17.5039221697

  4 0
s   9 1.0 
    45840.0000000000         0.2070013119
     6868.0000000000         0.3885023806
     1563.0000000000         0.6693241386
      442.4000000000         1.0760700264
      144.3000000000         1.5891765404
       52.1800000000         2.0467625615
       20.3400000000         2.0957271491
        8.3810000000         1.4068954098
        3.5290000000         0.4024679210
s   9 1.0 
    45840.0000000000        -0.1280239503
     6868.0000000000        -0.2451024263
     1563.0000000000        -0.4185277093
      442.4000000000        -0.6855177236
      144.3000000000        -1.0179501673
       52.1800000000        -1.4038213591
       20.3400000000        -1.5671074566
        8.3810000000        -1.4767088923
        3.5290000000        -0.6121674414
s   1 1.0 
        1.0540000000         0.7413794612
s   1 1.0 
        0.4118000000         0.3663741711
s   1 1.0 
        0.1552000000         0.1762296099
p   3 1.0 
       49.3300000000         5.8003427037
       11.3700000000         6.3555590049
        3.4350000000         5.5883087071
p   1 1.0 
        1.1820000000         1.7567579743
p   1 1.0 
        0.4173000000         0.4780799923
p   1 1.0 
        0.1428000000         0.1251268026
d   1 1.0 
        2.8370000000        17.6796605055
d   1 1.0 
        0.9680000000         2.6930967689
d   1 1.0 
        0.3350000000         0.4205314648
f   1 1.0 
        2.0270000000        27.9525230183
f   1 1.0 
        0.6850000000         2.4339063574
g   1 1.0 
        1.4270000000        17.5039221697

[5D]
[9G]
[MO]
 Sym=     1a
 Ene= -1.57486581722954E+01
 Spin= Alpha
 Occup= 2.000000
  1      -0.500731016181
  2      -0.000421836834
  3      -0.008526873135
  4       0.001868527524
  5      -0.000731938513
  6      -0.001109700162
  7      -0.000000170850
  8      -0.001104867274
  9       0.000284403457
 10      -0.000000160981
 11       0.000278737766
 12      -0.000197030253
 13       0.000000073313
 14      -0.000200033951
 15      -0.000236003920
 16       0.000000859814
 17      -0.000221013097
 18      -0.000019132852
 19      -0.000067234405
 20      -0.000000298784
 21      -0.000033784024
 22       0.000000216034
 23       0.000018771993
 24       0.000080206340
 25      -0.000001011480
 26       0.000042566474
 27       0.000001050026
 28      -0.000071678343
 29      -0.000240167283
 30      -0.000002438166
 31      -0.000118956178
 32       0.000002240524
 33      -0.000004592748
 34       0.000019024540
 35      -0.000001437176
 36       0.000019424685
 37       0.000002122848
 38      -0.000007791524
 39       0.000002196457
 40       0.000000008341
 41      -0.000011512623
 42      -0.000036285962
 43      -0.000008753479
 44       0.000041928844
 45       0.000002819547
 46       0.000040566446
 47      -0.000007039574
 48       0.000001888649
 49      -0.000018068579
 50       0.000011282953
 51       0.000007078748
 52      -0.000009125172
 53      -0.000002673829
 54      -0.000003411658
 55       0.000014269797
 56      -0.475142612876
 57      -0.000403973094
 58      -0.008091017549
 59       0.001778490759
 60      -0.000561904122
 61       0.001206670191
 62       0.000699542295
 63      -0.000511357322
 64      -0.000298279733
 65      -0.000174698721
 66       0.000125743667
 67       0.000188461724
 68       0.000112563942
 69      -0.000083133028
 70       0.000214838131
 71       0.000131393742
 72      -0.000089406071
 73       0.000025140103
 74       0.000037190674
 75       0.000021177464
 76      -0.000029649981
 77      -0.000050133687
 78      -0.000033967044
 79      -0.000045454889
 80      -0.000026638885
 81       0.000039011366
 82       0.000062984311
 83       0.000080559177
 84       0.000124315442
 85       0.000070779294
 86      -0.000093971098
 87      -0.000166562751
 88      -0.000010624639
 89       0.000006490059
 90       0.000001474497
 91       0.000009405761
 92       0.000014055014
 93      -0.000000724788
 94       0.000017645935
 95       0.000021323658
 96       0.000033972426
 97      -0.000042949810
 98       0.000026739708
 99      -0.000001312914
100      -0.000019627704
101      -0.000011394245
102       0.000005914001
103       0.000011701914
104      -0.000008031619
105      -0.000011490990
106       0.000005220859
107       0.000007213431
108       0.000015674361
109       0.000010976661
110      -0.000001623501
111      -0.516358084609
112      -0.000433630386
113      -0.008797774948
114       0.001930341696
115      -0.000840797154
116      -0.000547694944
117       0.000762578453
118       0.001315982107
119       0.000143039124
120      -0.000195779606
121      -0.000339205409
122      -0.000103256268
123       0.000143709533
124       0.000251552663
125      -0.000127621679
126       0.000166223944
127       0.000292705701
128      -0.000038079079
129       0.000037081190
130      -0.000052610683
131       0.000007144328
132       0.000021837679
133       0.000040984608
134      -0.000044214433
135       0.000060605697
136      -0.000007342748
137      -0.000025180823
138      -0.000146323412
139       0.000138333669
140      -0.000196029073
141       0.000026887896
142       0.000081657893
143      -0.000004247639
144       0.000014672728
145      -0.000018879752
146       0.000007649919
147       0.000015015092
148       0.000002613314
149       0.000003480780
150       0.000000391105
151       0.000005040056
152       0.000031659544
153       0.000036190519
154      -0.000005937815
155      -0.000036078525
156       0.000037929197
157      -0.000000639129
158      -0.000014125217
159      -0.000002965252
160      -0.000016698155
161      -0.000012421297
162      -0.000002359815
163      -0.000005036455
164       0.000004813742
165       0.000013772423
166      -0.492938881268
167      -0.000416915592
168      -0.008397033824
169       0.001845586510
170      -0.000683464786
171       0.000365903719
172      -0.001454231673
173       0.000361540875
174      -0.000089836348
175       0.000367091239
176      -0.000093128695
177       0.000060571265
178      -0.000251046942
179       0.000064033585
180       0.000063865815
181      -0.000290881848
182       0.000079250036
183       0.000033123056
184      -0.000007491123
185       0.000028841694
186       0.000055105643
187       0.000030743745
188      -0.000042673225
189       0.000008952230
190      -0.000035324079
191      -0.000065303287
192      -0.000036989532
193       0.000112470101
194      -0.000026048193
195       0.000102823477
196       0.000195452461
197       0.000105103430
198       0.000006918226
199       0.000004971787
200      -0.000011910949
201       0.000011429333
202       0.000007074174
203      -0.000013739167
204       0.000015268957
205      -0.000041534803
206       0.000040343042
207       0.000002820297
208       0.000018978867
209       0.000023697201
210       0.000022580263
211      -0.000006308467
212       0.000011605341
213      -0.000005945234
214      -0.000002807556
215      -0.000000879655
216       0.000012849827
217       0.000016868641
218      -0.000011989713
219      -0.000008165041
220      -0.000002154332
 Sym=     1a
 Ene= -1.57477358891115E+01
 Spin= Alpha
 Occup= 2.000000
  1       0.312121077958
  2       0.000205288499
  3       0.005201819511
  4      -0.000897516975
  5       0.001922503985
  6       0.000692693840
  7      -0.000033819526
  8       0.000634634169
  9      -0.000205896780
 10      -0.000059178489
 11      -0.000294323068
 12       0.000351207650
 13       0.000083023566
 14       0.000473313891
 15       0.000248346862
 16       0.000230339284
 17       0.000603617210
 18      -0.000015430790
 19       0.000016851250
 20      -0.000015989086
 21       0.000016083848
 22      -0.000011409308
 23       0.000026173290
 24       0.000042944192
 25       0.000002788464
 26      -0.000009683355
 27       0.000029971640
 28       0.000078058912
 29       0.000247479080
 30       0.000001851413
 31       0.000099620157
 32       0.000026144287
 33       0.000019984884
 34       0.000003170839
 35       0.000018129158
 36      -0.000009938212
 37       0.000008465308
 38       0.000003052712
 39      -0.000006159228
 40      -0.000025620047
 41       0.000052530669
 42      -0.000016250906
 43       0.000036461292
 44      -0.000001511099
 45       0.000002997000
 46      -0.000028791012
 47       0.000003494352
 48       0.000010925828
 49       0.000006813653
 50       0.000004991357
 51       0.000006928180
 52       0.000007712099
 53      -0.000004246158
 54       0.000000801076
 55      -0.000013587945
 56       0.143324985951
 57       0.000095125104
 58       0.002389447886
 59      -0.000417546624
 60       0.000853529273
 61      -0.000343917217
 62      -0.000240268084
 63       0.000112277905
 64       0.000141466460
 65       0.000008225810
 66      -0.000121890336
 67      -0.000225959509
 68      -0.000025456009
 69       0.000185771785
 70      -0.000261668936
 71       0.000131270708
 72       0.000343262241
 73      -0.000016847385
 74       0.000016353793
 75      -0.000004055150
 76      -0.000008844357
 77       0.000020188821
 78       0.000003851851
 79      -0.000020543583
 80      -0.000029686941
 81       0.000026315333
 82      -0.000017092122
 83      -0.000030517584
 84      -0.000078183371
 85      -0.000054948299
 86       0.000065960426
 87       0.000056085486
 88      -0.000000721522
 89      -0.000019299877
 90      -0.000002443635
 91       0.000017562974
 92      -0.000004588616
 93       0.000010159624
 94      -0.000004955033
 95      -0.000023816209
 96       0.000012038440
 97      -0.000011591636
 98      -0.000012663270
 99       0.000032451078
100       0.000024471427
101       0.000006765913
102      -0.000005841784
103       0.000004169150
104      -0.000000278237
105       0.000011339418
106       0.000011558161
107       0.000006182390
108       0.000000995596
109      -0.000012111378
110      -0.000004538024
111      -0.833042473594
112      -0.000540426438
113      -0.013882798606
114       0.002397733356
115      -0.005306670928
116      -0.000857456234
117       0.001174560975
118       0.002045324613
119       0.000320228847
120      -0.000468784814
121      -0.000774687054
122      -0.000538416355
123       0.000779496508
124       0.001294065590
125      -0.000531918243
126       0.000842422907
127       0.001325968069
128      -0.000023600454
129       0.000023610246
130      -0.000026730412
131       0.000000115114
132       0.000010968082
133      -0.000056361645
134       0.000052025495
135      -0.000082342818
136       0.000014289241
137       0.000027336969
138      -0.000363871487
139       0.000361685019
140      -0.000505885626
141       0.000071407391
142       0.000207884967
143      -0.000004475809
144       0.000019715907
145      -0.000011000002
146       0.000012403324
147       0.000013082035
148      -0.000008721275
149       0.000013648950
150       0.000014059802
151      -0.000078882758
152       0.000126489630
153      -0.000013856396
154      -0.000083523540
155      -0.000033953622
156       0.000008400054
157       0.000004947543
158      -0.000012181791
159      -0.000011354951
160      -0.000013686974
161      -0.000002150730
162       0.000004318932
163      -0.000006748322
164       0.000003460059
165       0.000017849636
166       0.417422374804
167       0.000273159434
168       0.006957656830
169      -0.001213272643
170       0.002579664747
171      -0.000290392869
172       0.001175919313
173      -0.000340514750
174       0.000124803725
175      -0.000466472483
176       0.000030134738
177      -0.000202166858
178       0.000761833060
179      -0.000066146625
180      -0.000239229966
181       0.000828745581
182       0.000120677559
183      -0.000002543933
184       0.000010287755
185      -0.000032608030
186      -0.000010808087
187      -0.000002651811
188      -0.000048981192
189       0.000012184436
190       0.000006564135
191      -0.000035813667
192      -0.000017886599
193      -0.000180379480
194       0.000038796205
195      -0.000115876794
196      -0.000267820818
197      -0.000144281203
198      -0.000012588984
199      -0.000002906869
200      -0.000000072846
201      -0.000019120908
202      -0.000018607280
203      -0.000006383060
204      -0.000001584017
205       0.000043992054
206      -0.000000495122
207      -0.000062631820
208       0.000014548061
209       0.000025845178
210      -0.000030038650
211       0.000035897925
212      -0.000000076644
213       0.000008757435
214      -0.000001151126
215       0.000014448393
216       0.000002058593
217      -0.000011000102
218       0.000011510069
219       0.000000911502
220      -0.000007669423
 Sym=     1a
 Ene= -1.57477223432197E+01
 Spin= Alpha
 Occup= 2.000000
  1       0.794078646040
  2       0.000512589137
  3       0.013222162298
  4      -0.002282196262
  5       0.005026013964
  6       0.001689154571
  7       0.000017209912
  8       0.001689654609
  9      -0.000666035423
 10       0.000030745196
 11      -0.000629966286
 12       0.001107608593
 13      -0.000044095604
 14       0.001050315531
 15       0.001166322994
 16      -0.000118290536
 17       0.001057719890
 18       0.000016323069
 19       0.000035556005
 20       0.000008054499
 21       0.000016490141
 22       0.000006181742
 23       0.000028444666
 24       0.000087638022
 25      -0.000005072034
 26       0.000053612917
 27      -0.000012043742
 28       0.000166788419
 29       0.000617920418
 30      -0.000006239262
 31       0.000325089227
 32      -0.000009742663
 33      -0.000000867201
 34      -0.000016460368
 35       0.000005326462
 36      -0.000016633624
 37      -0.000018419356
 38       0.000008799874
 39      -0.000008867123
 40      -0.000022632675
 41       0.000100410296
 42       0.000017493514
 43       0.000116306646
 44      -0.000019129355
 45      -0.000056634373
 46      -0.000009575682
 47      -0.000000989532
 48      -0.000002634393
 49       0.000020183236
 50      -0.000002370449
 51      -0.000013508824
 52      -0.000002238664
 53       0.000006652403
 54       0.000000709154
 55      -0.000014504334
 56      -0.267173553609
 57      -0.000172872471
 58      -0.004448944261
 59       0.000779766898
 60      -0.001648008973
 61       0.000625562092
 62       0.000403612851
 63      -0.000308888339
 64      -0.000302801110
 65      -0.000099584358
 66       0.000042230748
 67       0.000486212443
 68       0.000170888668
 69      -0.000078294428
 70       0.000620121600
 71       0.000072278683
 72       0.000053860591
 73      -0.000003416852
 74       0.000019984398
 75       0.000017743291
 76       0.000016986285
 77      -0.000011613882
 78       0.000041487492
 79       0.000014252751
 80      -0.000011490293
 81      -0.000026439880
 82      -0.000006539395
 83       0.000107162817
 84       0.000105818962
 85       0.000046265517
 86      -0.000113488424
 87      -0.000147372776
 88      -0.000012773774
 89      -0.000003107018
 90      -0.000002734922
 91       0.000005457838
 92       0.000014872400
 93      -0.000017825887
 94      -0.000007462619
 95       0.000043540785
 96      -0.000025928308
 97      -0.000030479981
 98      -0.000023935340
 99      -0.000018653631
100      -0.000006664969
101      -0.000017024040
102      -0.000007331415
103       0.000004286051
104      -0.000006863323
105       0.000003843584
106       0.000008048884
107      -0.000007940079
108       0.000008153271
109       0.000009183312
110       0.000013161318
111      -0.015472940170
112      -0.000011659949
113      -0.000258778800
114       0.000039919388
115      -0.000076376456
116      -0.000058381479
117       0.000039141393
118       0.000009393422
119      -0.000069089168
120       0.000024303762
121      -0.000060576056
122       0.000096342330
123      -0.000033162412
124       0.000088293997
125       0.000282329550
126      -0.000107898195
127       0.000208661882
128       0.000021987329
129       0.000017621032
130       0.000000011743
131       0.000000489992
132       0.000013832235
133      -0.000027758191
134      -0.000003613026
135       0.000008202945
136       0.000024981836
137      -0.000026451208
138      -0.000027707526
139       0.000003234929
140       0.000000121881
141       0.000020994199
142      -0.000019996509
143       0.000019708587
144       0.000012044089
145       0.000014216495
146      -0.000000485711
147       0.000011141242
148       0.000006595907
149      -0.000002538840
150       0.000006327413
151      -0.000027114040
152      -0.000012864044
153      -0.000014815840
154       0.000010082571
155      -0.000004058188
156       0.000027183545
157      -0.000010902313
158       0.000004513264
159      -0.000009883047
160       0.000007355348
161      -0.000004106687
162      -0.000009369615
163      -0.000004582085
164       0.000001951785
165       0.000004879300
166      -0.532897053065
167      -0.000346225887
168      -0.008877057009
169       0.001538335415
170      -0.003330249795
171       0.000345345658
172      -0.001526054449
173       0.000356769168
174      -0.000205884348
175       0.000551778016
176      -0.000180978670
177       0.000327876072
178      -0.000917785362
179       0.000291655943
180       0.000483638745
181      -0.000889721128
182       0.000384637593
183       0.000018019373
184       0.000008631159
185       0.000002539597
186       0.000032288783
187      -0.000004832477
188       0.000023767273
189       0.000003866051
190       0.000044181758
191       0.000031735768
192       0.000049826610
193       0.000197624779
194      -0.000040744141
195       0.000199517073
196       0.000326329178
197       0.000207257314
198      -0.000005568627
199       0.000011967531
200      -0.000013600151
201       0.000012866281
202      -0.000008828967
203       0.000003563806
204       0.000018603309
205      -0.000050054657
206      -0.000013495392
207       0.000043079136
208      -0.000050443217
209       0.000005484231
210       0.000067286395
211      -0.000042462972
212       0.000006602644
213      -0.000001775094
214      -0.000012293323
215       0.000004353322
216       0.000009073410
217       0.000001984849
218      -0.000009297616
219      -0.000012550144
220       0.000011108398
 Sym=     1a
 Ene= -1.57476949374257E+01
 Spin= Alpha
 Occup= 2.000000
  1       0.086235457668
  2       0.000052759755
  3       0.001432650547
  4      -0.000249353646
  5       0.000584408767
  6       0.000159182781
  7      -0.000036791420
  8       0.000208654735
  9      -0.000122774412
 10      -0.000069381413
 11      -0.000025109342
 12       0.000198266679
 13       0.000102552071
 14       0.000053084021
 15       0.000309708608
 16       0.000259607200
 17      -0.000051786604
 18       0.000018242805
 19       0.000005242577
 20      -0.000012999715
 21      -0.000012424821
 22      -0.000018686815
 23      -0.000027449491
 24       0.000020486850
 25       0.000032077932
 26       0.000004644041
 27       0.000006279634
 28      -0.000011278600
 29       0.000076211639
 30       0.000028545073
 31       0.000042768803
 32       0.000013993563
 33      -0.000003432891
 34      -0.000015080799
 35      -0.000000079815
 36       0.000004273310
 37       0.000012270997
 38      -0.000011390458
 39      -0.000015658779
 40      -0.000029645295
 41       0.000013086242
 42       0.000026698476
 43       0.000011747313
 44       0.000007398354
 45       0.000008953965
 46       0.000009681416
 47      -0.000000329556
 48      -0.000014095321
 49       0.000004355231
 50      -0.000000478722
 51       0.000004835393
 52      -0.000002318096
 53      -0.000014319221
 54      -0.000007275677
 55      -0.000005361477
 56      -0.817599688509
 57      -0.000528135104
 58      -0.013605780097
 59       0.002347235537
 60      -0.005093403572
 61       0.002005980856
 62       0.001144014939
 63      -0.000839407796
 64      -0.000745441732
 65      -0.000468396748
 66       0.000329328804
 67       0.001237778330
 68       0.000769875206
 69      -0.000542602501
 70       0.001228228904
 71       0.000850644176
 72      -0.000580014101
 73       0.000015046321
 74       0.000021297498
 75       0.000007777508
 76      -0.000026460272
 77      -0.000026042760
 78       0.000020979423
 79       0.000049101140
 80       0.000032782062
 81      -0.000027663433
 82      -0.000078423362
 83       0.000232159870
 84       0.000351830177
 85       0.000208326940
 86      -0.000270523688
 87      -0.000495130365
 88      -0.000001413281
 89       0.000014900583
 90      -0.000009804351
 91       0.000018671822
 92       0.000009630932
 93       0.000000983749
 94       0.000018821620
 95       0.000069211201
 96      -0.000012910311
 97      -0.000035019427
 98      -0.000034778548
 99      -0.000083574203
100      -0.000003567880
101      -0.000120672472
102       0.000009169939
103       0.000004900245
104      -0.000015570392
105      -0.000013896855
106       0.000008760871
107       0.000013668685
108       0.000006711939
109       0.000005028843
110       0.000005179085
111       0.159119172597
112       0.000100862902
113       0.002647170093
114      -0.000449824979
115       0.001051035753
116       0.000135815129
117      -0.000268076008
118      -0.000376147827
119      -0.000111889668
120       0.000011217675
121       0.000176413917
122       0.000178881710
123      -0.000038696952
124      -0.000295025563
125       0.000296511049
126       0.000138291648
127      -0.000358103823
128      -0.000005964459
129       0.000013281606
130       0.000019587367
131      -0.000019603206
132      -0.000007284226
133       0.000034037392
134      -0.000024087871
135      -0.000014780169
136       0.000010502195
137      -0.000025385244
138       0.000090730808
139      -0.000083567715
140       0.000071331061
141       0.000001859015
142      -0.000053679351
143      -0.000000731706
144       0.000011838932
145       0.000001948455
146      -0.000022683284
147      -0.000007347915
148      -0.000011908288
149       0.000001587683
150      -0.000029937849
151       0.000012380317
152      -0.000005456389
153      -0.000000135992
154       0.000032086995
155       0.000027674705
156       0.000008249553
157       0.000003280917
158      -0.000007457122
159       0.000004014597
160       0.000014888979
161       0.000000535127
162       0.000004590954
163      -0.000011730648
164      -0.000005348186
165      -0.000000491276
166       0.533797044637
167       0.000342575255
168       0.008883138512
169      -0.001522321729
170       0.003410763105
171      -0.000417434508
172       0.001507272105
173      -0.000363187508
174       0.000076815632
175      -0.000594132887
176       0.000171292539
177      -0.000144224331
178       0.000994659021
179      -0.000281615594
180       0.000012744365
181       0.001047092945
182      -0.000347025485
183      -0.000012442802
184       0.000007712800
185      -0.000000279738
186      -0.000012740106
187      -0.000031968728
188      -0.000009965740
189       0.000011863184
190      -0.000033129702
191      -0.000074586031
192      -0.000005036848
193      -0.000188603691
194       0.000049592553
195      -0.000192000715
196      -0.000366818394
197      -0.000163779731
198       0.000009389439
199      -0.000010430555
200       0.000004505143
201      -0.000000545555
202      -0.000015931085
203       0.000021213360
204      -0.000004435986
205       0.000035133359
206      -0.000010676415
207      -0.000029237213
208       0.000030925865
209       0.000025149131
210      -0.000058887247
211       0.000080656736
212      -0.000010074589
213       0.000000441607
214       0.000009845727
215       0.000005361631
216      -0.000012690561
217      -0.000014123427
218      -0.000002830594
219      -0.000006487311
220       0.000003193779
 Sym=     1a
 Ene= -1.65179347979498E+00
 Spin= Alpha
 Occup= 2.000000
  1       0.005385615094
  2      -0.141090189143
  3      -0.107955493046
  4      -0.198231069044
  5      -0.042016153619
  6      -0.021868268637
  7      -0.000003609430
  8      -0.022024220677
  9      -0.042563380417
 10      -0.000007092762
 11      -0.042904745671
 12      -0.049530392611
 13      -0.000005296119
 14      -0.049763001174
 15      -0.007788408266
 16      -0.000000641240
 17      -0.007773060356
 18      -0.000600130349
 19      -0.002003398234
 20      -0.000013317743
 21      -0.000988984257
 22       0.000012082308
 23      -0.002984136553
 24      -0.010032268059
 25      -0.000070986460
 26      -0.004963875207
 27       0.000066968661
 28      -0.003588117657
 29      -0.012410251106
 30      -0.000055212121
 31      -0.006201025035
 32       0.000052394771
 33       0.000037837484
 34      -0.000204483355
 35      -0.000094000422
 36      -0.000194978194
 37       0.000092930787