Process 0 of 1 is on He - thread support 0
initial socket setup ...start
initial socket setup ...done 
now start server 0 ... 
He 127.0.1
Q-Chem Developer Version! Running on 127.0.1.*
                  Welcome to Q-Chem
     A Quantum Leap Into The Future Of Chemistry


 Q-Chem 4.4, Q-Chem, Inc., Pleasanton, CA (2016)

 Y. Shao,  Z. Gan,  E. Epifanovsky,  A. T. B. Gilbert,  M. Wormit,  
 J. Kussmann,  A. W. Lange,  A. Behn,  J. Deng,  X. Feng,  D. Ghosh,  
 M. Goldey,  P. R. Horn,  L. D. Jacobson,  I. Kaliman,  F.Rob,  
 R. Z. Khaliullin,  T. Kus,  A. Landau,  J. Liu,  E. I. Proynov,  Y. M. Rhee,  
 R. M. Richard,  M. A. Rohrdanz,  R. P. Steele,  E. J. Sundstrom,  
 H. L. Woodcock III,  P. M. Zimmerman,  D. Zuev,  B. Albrecht,  E. Alguire,  
 B. Austin,  S. A. Baeppler,  G. J. O. Beran,  Y. A. Bernard,  E. Berquist,  
 K. Brandhorst,  K. B. Bravaya,  S. T. Brown,  D. Casanova,  C.-M. Chang,  
 Y. Chen,  S. H. Chien,  K. D. Closser,  M. P. Coons,  D. L. Crittenden,  
 S. Dasgupta,  M. Diedenhofen,  R. A. DiStasio Jr.,  H. Do,  A. D. Dutoi,  
 R. G. Edgar,  P.-T. Fang,  S. Fatehi,  Q. Feng,  L. Fusti-Molnar,  
 A. Ghysels,  A. Golubeva-Zadorozhnaya,  J. Gomes,  A. Gunina,  
 M. W. D. Hanson-Heine,  P. H. P. Harbach,  A. W. Hauser,  J. E. Herr,  
 E. G. Hohenstein,  Z. C. Holden,  K. Hui,  T.-C. Jagau,  H. Ji,  B. Kaduk,  
 K. Khistyaev,  Jaehoon Kim,  Jihan Kim,  R. A. King,  P. Klunzinger,  
 K. Koh,  D. Kosenkov,  T. Kowalczyk,  C. M. Krauter,  A. Kunitsa,  
 K. U. Lao,  A. Laurent,  K. V. Lawler,  J. Lee,  D. Lefrancois,  S. Lehtola,  
 S. V. Levchenko,  C. Y. Lin,  Y.-S. Lin,  F. Liu,  E. Livshits,  
 R. C. Lochan,  A. Luenser,  P. Manohar,  S. F. Manzer,  S.-P. Mao,  Y. Mao,  
 N. Mardirossian,  A. V. Marenich,  L. A. Martinez-Martinez,  S. A. Maurer,  
 N. J. Mayhall,  J.-M. Mewes,  A. F. Morrison,  K. Nanda,  T. S. Nguyen-Beck,  
 C. M. Oana,  R. Olivares-Amaya,  D. P. O'Neill,  J. A. Parkhill,  
 T. M. Perrine,  R. Peverati,  P. A. Pieniazek,  F. Plasser,  A. Prociuk,  
 D. R. Rehn,  E. Rosta,  N. J. Russ,  N. Sergueev,  S. M. Sharada,  
 S. Sharma,  D. W. Small,  A. Sodt,  T. Stauch,  T. Stein,  D. Stuck,  
 Y.-C. Su,  A. J. W. Thom,  T. Tsuchimochi,  L. Vogt,  O. Vydrov,  T. Wang,  
 M. A. Watson,  J. Wenzel,  A. White,  C. F. Williams,  V. Vanovschi,  
 K. Yao,  S. Yeganeh,  S. R. Yost,  Z.-Q. You,  I. Y. Zhang,  X. Zhang,  
 Y. Zhao,  B. R. Brooks,  G. K. L. Chan,  D. M. Chipman,  C. J. Cramer,  
 W. A. Goddard III,  M. S. Gordon,  W. J. Hehre,  A. Klamt,  
 H. F. Schaefer III,  M. W. Schmidt,  C. D. Sherrill,  D. G. Truhlar,  
 A. Warshel,  X. Xu,  A. Aspuru-Guzik,  R. Baer,  A. T. Bell,  N. A. Besley,  
 J.-D. Chai,  A. Dreuw,  B. D. Dunietz,  T. R. Furlani,  S. R. Gwaltney,  
 C.-P. Hsu,  Y. Jung,  J. Kong,  D. S. Lambrecht,  W. Liang,  C. Ochsenfeld,  
 V. A. Rassolov,  L. V. Slipchenko,  J. E. Subotnik,  T. Van Voorhis,  
 J. M. Herbert,  A. I. Krylov,  P. M. W. Gill,  M. Head-Gordon

 Contributors to earlier versions of Q-Chem not listed above: 
 R. D. Adamson,  J. Baker,  E. F. C. Byrd,  A. K. Chakraborty,  C.-L. Cheng,  
 H. Dachsel,  R. J. Doerksen,  G. Hawkins,  A. Heyden,  S. Hirata,  
 G. Kedziora,  F. J. Keil,  C. Kelley,  P. P. Korambath,  W. Kurlancheek,  
 A. M. Lee,  M. S. Lee,  D. Liotard,  I. Lotan,  P. E. Maslen,  N. Nair,  
 D. Neuhauser,  R. Olson,  B. Peters,  J. Ritchie,  N. E. Schultz,  
 N. Shenvi,  A. C. Simmonett,  K. S. Thanthiriwatte,  Q. Wu,  W. Zhang

 Please cite Q-Chem as follows:
 Y. Shao et al., Mol. Phys. 113, 184-215 (2015)
 DOI: 10.1080/00268976.2014.952696

 Q-Chem 4.4.1 for Intel X86 EM64T Linux

 Parts of Q-Chem use Armadillo 5.200.1 (Boston Tea Smuggler).
 http://arma.sourceforge.net/

 Q-Chem begins on Wed May 17 02:47:17 2017  


Host: 0

     Scratch files written to /home/vladimir/scratch/qchem11815//
 Parallel job on  1  processors

Checking the input file for inconsistencies... 	...done.

--------------------------------------------------------------
User input:
--------------------------------------------------------------
$comment0
$end

$rem
SYMMETRY              false
SYM_IGNORE            true
BASIS                 general
METHOD                HF
SCF_CONVERGENCE       8
MOLDEN_FORMAT         true
PRINT_ORBITALS        1000
$end

$basis
   H 0
   G 3  1.0
     10.1787046997423421309  0.00059884370424923467
     2.39526407180282360689 -0.09809424339784892573
     1.04864968631957502892  0.94847150361269593480
   G 1  1.0
     0.72018956988162897143  1.0
   G 1  1.0
     0.33281514997841096614  1.0
   G 1  1.0
     0.12166473257337672303  1.0
   ****
   C 0
   G 3  1.0
     60.0434382795337167843  0.11407461847341315449
     22.1675054852210094114  0.10668188273112432880
     4.80239596988874257441 15.21685292468813489609
   G 1  1.0
     1.48339076950115698968  1.0
   G 1  1.0
     0.46178952710355971802  1.0
   G 1  1.0
     0.30249228070031443967  1.0
   G 1  1.0
     0.09028412219748024402  1.0
   ****
$end

$molecule
   0 1
   C       0.000000      0.000000      0.000000
   H       0.629118      0.629118      0.629118
   H      -0.629118     -0.629118      0.629118
   H       0.629118     -0.629118     -0.629118
   H      -0.629118      0.629118     -0.629118
$end
--------------------------------------------------------------
 ----------------------------------------------------------------
             Standard Nuclear Orientation (Angstroms)
    I     Atom           X                Y                Z
 ----------------------------------------------------------------
    1      C       0.0000000000     0.0000000000     0.0000000000
    2      H       0.6291180000     0.6291180000     0.6291180000
    3      H      -0.6291180000    -0.6291180000     0.6291180000
    4      H       0.6291180000    -0.6291180000    -0.6291180000
    5      H      -0.6291180000     0.6291180000    -0.6291180000
 ----------------------------------------------------------------
 Nuclear Repulsion Energy =    13.4395278869 hartrees
 There are        5 alpha and        5 beta electrons

 Q-Chem warning in module /home/peve/qchem/forms1/BasisType.C, line 1522:

 Setting pure/cartesian flag to 2111 for general basis


 Requested basis set is non-standard
 There are 21 shells and 189 basis functions

 Total QAlloc Memory Limit   2000 MB
 Mega-Array Size        61 MB
 MEM_STATIC part        62 MB

                       Distance Matrix (Angstroms)
             C (  1)   H (  2)   H (  3)   H (  4)
   H (  2)  1.089664
   H (  3)  1.089664  1.779414
   H (  4)  1.089664  1.779414  1.779414
   H (  5)  1.089664  1.779414  1.779414  1.779414

 A cutoff of  1.0D-11 yielded    231 shell pairs
 There are     18711 function pairs (     51975 Cartesian)

 -------------------------------------------------------
 OpenMP Integral Computing Module                       
 Release: version 1.0, May 2013, Q-Chem Inc. Pittsburgh 
 -------------------------------------------------------
 Integral Job Info:
 Integral job number is                      11
 Integral operator is                         1
 short-range coefficients                     0
 long-range coefficients              100000000
 Omega coefficients                           0
 if combine SR and LR in K                    0
 Integral screening is                        0
 Integral computing path is                   2
 max size of driver memory is           3200000
 size of driver memory is               1704330
 size of scratch memory is             26782002
 max col of scratch BK array              50625
 max len of scratch array in speh3         2114
 max len of scratch index in speh4           50
 max int batch size is                      520
 min int batch size is                       52
 fixed nKL is                                 6
 max L of basis functions is                  4
 order of int derivative is                   0
 number of shells is                         21
 number of basis is                         315
 number of cartesian basis is               315
 number of contracted shell pairs           231
 number of primitive shell pairs            497
 maxK2 (contraction) of shell pair            9
 max number of K2 of shell pair               1
 max number of CS2 of shell pair            136
 max number of PS2 of shell pair            240
 mem total for path MDJ                 1607492
 -------------------------------------------------------
 Smallest overlap matrix eigenvalue = 1.53E-02

 Scale SEOQF with 1.000000e-01/1.000000e-01/1.000000e-01

 Standard Electronic Orientation quadrupole field applied
 Guess MOs from core Hamiltonian diagonalization
 A restricted Hartree-Fock SCF calculation will be
 performed using Pulay DIIS extrapolation
 SCF converges when DIIS error is below 1.0E-08
 using 12 threads for integral computing 
 ---------------------------------------
  Cycle       Energy         DIIS Error
 ---------------------------------------
    1      -6.2173599863      1.52E-02
    2      -7.5364580418      1.61E-03
    3      -7.5482303072      1.85E-04
    4      -7.5486756654      3.80E-05
    5      -7.5487138763      9.73E-06
    6      -7.5487181023      2.46E-06
    7      -7.5487183766      3.36E-07
    8      -7.5487183797      3.63E-08
    9      -7.5487183798      1.22E-08
   10      -7.5487183798      9.94E-09 Convergence criterion met
 ---------------------------------------
 SCF time:  CPU 3588.83 s  wall 1023.94 s
 SCF   energy in the final basis set = -7.5487183798
 Total energy in the final basis set = -7.5487183798

 --------------------------------------------------------------

                    Orbital Energies (a.u.)
 --------------------------------------------------------------

 Alpha MOs
 -- Occupied --
 -1.798  -0.468  -0.464  -0.464   0.035
 -- Virtual --
  0.251   0.251   0.328   0.343   0.362   0.368   0.368   0.374
  0.376   0.377   0.380   0.381   0.381   0.384   0.384   0.384
  0.385   0.403   0.409   0.409   0.549   0.549   0.549   0.572
  0.578   0.578   0.644   0.647   0.667   0.667   0.669   0.713
  0.742   0.742   0.747   0.763   0.810   0.810   0.810   0.818
  0.820   0.855   0.855   0.858   0.902   0.947   0.956   0.956
  0.976   0.979   1.049   1.049   1.056   1.114   1.121   1.121
  1.178   1.179   1.371   1.371   1.372   1.384   1.384   1.385
  1.510   1.600   1.601   1.601   1.601   1.606   1.606   1.607
  1.639   1.639   1.641   1.645   1.646   1.696   1.696   1.704
  1.815   1.817   2.004   2.005   2.005   2.117   2.308   2.308
  2.308   2.311   2.539   2.539   2.553   2.589   2.595   2.683
  2.692   2.692   3.154   3.154   3.157   3.343   3.345   3.455
  3.499   3.499   3.501   3.541   3.541   3.543   3.640   3.645
  3.645   3.659   3.663   3.854   3.855   3.855   3.873   3.879
  3.998   4.003   4.003   4.016   4.016   4.016   4.202   4.209
  4.209   4.213   6.531   6.531   6.531   6.644   6.776   6.780
  6.834   6.834   6.842   7.106   7.110   7.110   7.118   7.123
  7.178   7.178   7.178   7.480   7.480   7.481   7.551   7.551
  7.551   7.647   7.670   7.701   7.701   7.701   7.745   7.746
  7.767   7.768   7.768   7.902   7.902   7.903   7.935   7.935
  7.939   8.234   8.438   8.438   8.533   8.541   8.541  24.031
 24.032  24.032  24.117  24.132  24.132  24.135  24.197  24.199
 --------------------------------------------------------------


                        RESTRICTED (RHF) MOLECULAR ORBITAL COEFFICIENTS
                         1         2         3         4         5         6
 eigenvalues:         -1.798    -0.468    -0.464    -0.464     0.035     0.251
   1  C     g 1      0.00000   0.00000   0.00000  -0.00000   0.00000   0.00000
   2  C     g 2     -0.00000   0.00000  -0.00282   0.00000   0.00000   0.00000
   3  C     g 3     -0.00000  -0.00303  -0.00000  -0.00000   0.00012  -0.00000
   4  C     g 4      0.00000  -0.00000   0.00105  -0.00000  -0.00000   0.00000
   5  C     g 5     -0.00159  -0.00000   0.00000   0.00000   0.00000   0.00000
   6  C     g 6     -0.00000   0.00000  -0.00000  -0.00105   0.00000   0.00006
   7  C     g 7     -0.00000  -0.00000  -0.00000   0.00000   0.00000  -0.00000
   8  C     g 8     -0.00000   0.00000  -0.00000  -0.00282   0.00000   0.00007
   9  C     g 9     -0.00137  -0.00000   0.00000   0.00000  -0.00000  -0.00000
  10  C     g 1     -0.00000  -0.00000  -0.00000   0.00000  -0.00000  -0.00000
  11  C     g 2     -0.00000  -0.00000   0.02053  -0.00000  -0.00000   0.00000
  12  C     g 3     -0.00000   0.02195   0.00000   0.00000  -0.00730   0.00000
  13  C     g 4      0.00000   0.00000  -0.00764   0.00000   0.00000  -0.00000
  14  C     g 5      0.01970   0.00000  -0.00000  -0.00000  -0.00000  -0.00000
  15  C     g 6     -0.00000  -0.00000   0.00000   0.00764  -0.00000  -0.00232
  16  C     g 7      0.00000   0.00000   0.00000  -0.00000  -0.00000   0.00000
  17  C     g 8     -0.00000  -0.00000   0.00000   0.02053  -0.00000  -0.00564
  18  C     g 9      0.01669  -0.00000  -0.00000  -0.00000   0.00000   0.00000
  19  C     g 1     -0.00000   0.00000   0.00000  -0.00000   0.00000   0.00000
  20  C     g 2      0.00000   0.00001  -0.37002   0.00000   0.00000  -0.00000
  21  C     g 3      0.00000  -0.39598  -0.00001  -0.00003   0.04127  -0.00000
  22  C     g 4     -0.00000  -0.00000   0.13839  -0.00000  -0.00000   0.00000
  23  C     g 5     -0.51275  -0.00000   0.00000   0.00000  -0.00000  -0.00000
  24  C     g 6      0.00000   0.00001  -0.00000  -0.13839   0.00000   0.01145
  25  C     g 7     -0.00000  -0.00000  -0.00000   0.00000   0.00000  -0.00000
  26  C     g 8      0.00000   0.00003  -0.00000  -0.37002   0.00000   0.02493
  27  C     g 9     -0.43388  -0.00000   0.00000   0.00000  -0.00000  -0.00000
  28  C     g 1      0.00000  -0.00000  -0.00000   0.00000  -0.00000  -0.00000
  29  C     g 2     -0.00000  -0.00002   0.71548  -0.00000   0.00000  -0.00000
  30  C     g 3     -0.00000   0.77361   0.00003   0.00006   0.19695  -0.00000
  31  C     g 4      0.00000   0.00001  -0.26757   0.00000  -0.00000   0.00000
  32  C     g 5      0.68897  -0.00000  -0.00000  -0.00000  -0.00000  -0.00000
  33  C     g 6     -0.00000  -0.00002   0.00000   0.26757   0.00000   0.05982
  34  C     g 7      0.00000  -0.00000   0.00000  -0.00000  -0.00000   0.00000
  35  C     g 8     -0.00000  -0.00005   0.00000   0.71548   0.00000   0.18436
  36  C     g 9      0.58250   0.00000  -0.00000  -0.00000  -0.00000  -0.00000
  37  C     g 1      0.00000  -0.00000   0.00000  -0.00000   0.00000  -0.00000
  38  C     g 2      0.00000   0.00004  -1.08593   0.00000  -0.00000   0.00000
  39  C     g 3      0.00000  -1.15703  -0.00004  -0.00008  -0.11762   0.00000
  40  C     g 4     -0.00000  -0.00001   0.41302  -0.00000   0.00000  -0.00000
  41  C     g 5     -0.66225   0.00000  -0.00000  -0.00000   0.00000   0.00000
  42  C     g 6      0.00000   0.00003  -0.00000  -0.41302  -0.00000  -0.01909
  43  C     g 7     -0.00000   0.00000  -0.00000   0.00000   0.00000   0.00000
  44  C     g 8      0.00000   0.00008  -0.00000  -1.08593  -0.00000  -0.12968
  45  C     g 9     -0.55754  -0.00000   0.00000   0.00000   0.00000   0.00000
  46  H 1   g 1     -0.00000  -0.00000   0.00010   0.00010  -0.00000  -0.00318
  47  H 1   g 2      0.17476  -0.01922  -0.05255   0.02039   0.03097  -0.02791
  48  H 1   g 3      0.18739  -0.05688  -0.02192   0.02192  -0.01783  -0.02884
  49  H 1   g 4     -0.06585   0.00813   0.02018  -0.00701  -0.01494   0.00793
  50  H 1   g 5     -0.04077  -0.00333  -0.01690   0.01690   0.01035   0.02487
  51  H 1   g 6     -0.06585   0.00813   0.00701  -0.02018  -0.01494  -0.00600
  52  H 1   g 7      0.00000   0.00000  -0.01154  -0.01154  -0.00000  -0.03028
  53  H 1   g 8     -0.17476   0.01922   0.02039  -0.05255  -0.03097  -0.01540
  54  H 1   g 9     -0.03429  -0.02263  -0.00561   0.00561  -0.04552  -0.00052
  55  H 1   g 1     -0.00000  -0.00000   0.00989   0.00989   0.00000   0.00981
  56  H 1   g 2     -0.31109  -0.00381   0.07891   0.00814  -0.06966   0.06628
  57  H 1   g 3     -0.33331   0.08554  -0.00457   0.00458   0.03051   0.06737
  58  H 1   g 4      0.11737   0.01063  -0.03047   0.00644   0.03685  -0.01611
  59  H 1   g 5      0.09001   0.02820   0.05895  -0.05895  -0.01841  -0.05336
  60  H 1   g 6      0.11737   0.01063  -0.00644   0.03047   0.03685   0.01008
  61  H 1   g 7     -0.00000  -0.00000   0.02611   0.02611   0.00000   0.06147
  62  H 1   g 8      0.31109   0.00380   0.00814   0.07891   0.06967   0.02610
  63  H 1   g 9      0.07605   0.06840   0.03023  -0.03022   0.09402  -0.00140
  64  H 1   g 1      0.00000  -0.00001   0.11480   0.11480   0.00000   0.06106
  65  H 1   g 2     -0.04990   0.03900   0.05925   0.04760   0.13979  -0.07724
  66  H 1   g 3     -0.05301   0.06532  -0.00759   0.00760   0.02372  -0.10652
  67  H 1   g 4      0.01887   0.11128  -0.02187   0.10620   0.01795   0.09502
  68  H 1   g 5      0.02282  -0.18591  -0.07584   0.07582   0.01850   0.05063
  69  H 1   g 6      0.01887   0.11129  -0.10619   0.02188   0.01795   0.00825
  70  H 1   g 7     -0.00000  -0.00001   0.10023   0.10023  -0.00000  -0.05630
  71  H 1   g 8      0.04990  -0.03902   0.04760   0.05925  -0.13979   0.02249
  72  H 1   g 9      0.01925  -0.00945  -0.13914   0.13914  -0.09391   0.00612
  73  H 1   g 1     -0.00000  -0.00000   0.03968   0.03968   0.00000   0.04264
  74  H 1   g 2     -0.03031   0.03394   0.67632  -0.00322   0.10718  -0.10733
  75  H 1   g 3     -0.03206   0.72088   0.02039  -0.02031   0.04089  -0.11461
  76  H 1   g 4      0.01183   0.03084  -0.25675   0.04553  -0.00841   0.06444
  77  H 1   g 5      0.38095  -0.09082  -0.02244   0.02244   0.11253   0.15906
  78  H 1   g 6      0.01183   0.03082  -0.04553   0.25675  -0.00841   0.01309
  79  H 1   g 7     -0.00000  -0.00001   0.06146   0.06146  -0.00001  -0.23286
  80  H 1   g 8      0.03031  -0.03402  -0.00322   0.67632  -0.10718   0.05613
  81  H 1   g 9      0.32215   0.01369  -0.06841   0.06841  -0.25285  -0.05446
  82  H 2   g 1      0.00000   0.00000  -0.00010  -0.00010   0.00000   0.00318
  83  H 2   g 2     -0.17476   0.01922  -0.05255   0.02039  -0.03097  -0.02790
  84  H 2   g 3      0.18739  -0.05688   0.02192  -0.02193  -0.01783   0.02884
  85  H 2   g 4      0.06585  -0.00813   0.02018  -0.00701   0.01494   0.00793
  86  H 2   g 5     -0.04077  -0.00333   0.01690  -0.01690   0.01035  -0.02487
  87  H 2   g 6      0.06585  -0.00812   0.00701  -0.02018   0.01494  -0.00600
  88  H 2   g 7     -0.00000  -0.00000   0.01154   0.01154   0.00000   0.03028
  89  H 2   g 8      0.17476  -0.01921   0.02039  -0.05255   0.03097  -0.01540
  90  H 2   g 9     -0.03429  -0.02263   0.00561  -0.00561  -0.04552   0.00052
  91  H 2   g 1      0.00000   0.00000  -0.00989  -0.00989  -0.00000  -0.00981
  92  H 2   g 2      0.31109   0.00380   0.07891   0.00814   0.06967   0.06628
  93  H 2   g 3     -0.33331   0.08554   0.00458  -0.00457   0.03051  -0.06737
  94  H 2   g 4     -0.11737  -0.01063  -0.03047   0.00644  -0.03685  -0.01611
  95  H 2   g 5      0.09001   0.02819  -0.05895   0.05896  -0.01841   0.05336
  96  H 2   g 6     -0.11737  -0.01063  -0.00644   0.03047  -0.03685   0.01008
  97  H 2   g 7      0.00000   0.00000  -0.02611  -0.02611  -0.00000  -0.06147
  98  H 2   g 8     -0.31109  -0.00381   0.00814   0.07891  -0.06966   0.02610
  99  H 2   g 9      0.07605   0.06840  -0.03022   0.03023   0.09402   0.00140
 100  H 2   g 1     -0.00000   0.00001  -0.11480  -0.11480  -0.00000  -0.06106
 101  H 2   g 2      0.04990  -0.03901   0.05925   0.04760  -0.13980  -0.07724
 102  H 2   g 3     -0.05301   0.06532   0.00760  -0.00759   0.02373   0.10652
 103  H 2   g 4     -0.01887  -0.11129  -0.02188   0.10618  -0.01795   0.09502
 104  H 2   g 5      0.02282  -0.18590   0.07583  -0.07585   0.01850  -0.05063
 105  H 2   g 6     -0.01887  -0.11129  -0.10620   0.02187  -0.01795   0.00825
 106  H 2   g 7      0.00000   0.00001  -0.10023  -0.10023   0.00000   0.05630
 107  H 2   g 8     -0.04990   0.03900   0.04760   0.05925   0.13979   0.02249
 108  H 2   g 9      0.01925  -0.00944   0.13914  -0.13914  -0.09391  -0.00612
 109  H 2   g 1      0.00000   0.00000  -0.03968  -0.03968  -0.00000  -0.04263
 110  H 2   g 2      0.03031  -0.03399   0.67632  -0.00322  -0.10718  -0.10733
 111  H 2   g 3     -0.03206   0.72088  -0.02034   0.02042   0.04089   0.11461
 112  H 2   g 4     -0.01183  -0.03083  -0.25675   0.04553   0.00841   0.06443
 113  H 2   g 5      0.38095  -0.09082   0.02244  -0.02245   0.11253  -0.15906
 114  H 2   g 6     -0.01183  -0.03085  -0.04553   0.25675   0.00841   0.01309
 115  H 2   g 7      0.00000   0.00001  -0.06146  -0.06146   0.00001   0.23286
 116  H 2   g 8     -0.03031   0.03392  -0.00322   0.67633   0.10718   0.05612
 117  H 2   g 9      0.32215   0.01370   0.06841  -0.06841  -0.25285   0.05447
 118  H 3   g 1      0.00000  -0.00000  -0.00010   0.00010  -0.00000  -0.00318
 119  H 3   g 2      0.17476   0.01922  -0.05255  -0.02039  -0.03097   0.02791
 120  H 3   g 3     -0.18739  -0.05688   0.02192   0.02192  -0.01783  -0.02884
 121  H 3   g 4     -0.06585  -0.00813   0.02018   0.00701   0.01494  -0.00793
 122  H 3   g 5     -0.04077   0.00333  -0.01690  -0.01690  -0.01035  -0.02487
 123  H 3   g 6      0.06585   0.00813  -0.00701  -0.02018  -0.01494  -0.00600
 124  H 3   g 7      0.00000  -0.00000  -0.01154   0.01154   0.00000   0.03028
 125  H 3   g 8      0.17476   0.01922  -0.02039  -0.05255  -0.03097  -0.01540
 126  H 3   g 9     -0.03429   0.02263  -0.00561  -0.00561   0.04552   0.00052
 127  H 3   g 1      0.00000  -0.00000  -0.00989   0.00989   0.00000   0.00981
 128  H 3   g 2     -0.31109   0.00381   0.07891  -0.00814   0.06966  -0.06628
 129  H 3   g 3      0.33331   0.08554   0.00458   0.00458   0.03051   0.06737
 130  H 3   g 4      0.11737  -0.01063  -0.03047  -0.00644  -0.03685   0.01611
 131  H 3   g 5      0.09001  -0.02820   0.05895   0.05895   0.01841   0.05336
 132  H 3   g 6     -0.11737   0.01063   0.00644   0.03047   0.03685   0.01008
 133  H 3   g 7     -0.00000   0.00000   0.02611  -0.02611  -0.00000  -0.06147
 134  H 3   g 8     -0.31109   0.00380  -0.00814   0.07891   0.06966   0.02610
 135  H 3   g 9      0.07605  -0.06840   0.03022   0.03022  -0.09402   0.00140
 136  H 3   g 1     -0.00000  -0.00000  -0.11480   0.11480   0.00000   0.06106
 137  H 3   g 2     -0.04990  -0.03901   0.05925  -0.04760  -0.13979   0.07724
 138  H 3   g 3      0.05301   0.06532   0.00760   0.00760   0.02372  -0.10652
 139  H 3   g 4      0.01887  -0.11128  -0.02188  -0.10620  -0.01795  -0.09502
 140  H 3   g 5      0.02282   0.18591  -0.07583  -0.07582  -0.01850  -0.05063
 141  H 3   g 6     -0.01887   0.11128   0.10620   0.02188   0.01795   0.00825
 142  H 3   g 7     -0.00000   0.00000   0.10023  -0.10023   0.00000   0.05630
 143  H 3   g 8     -0.04990  -0.03901  -0.04760   0.05925  -0.13979   0.02249
 144  H 3   g 9      0.01925   0.00946  -0.13914  -0.13914   0.09391  -0.00612
 145  H 3   g 1      0.00000  -0.00000  -0.03968   0.03968   0.00000   0.04264
 146  H 3   g 2     -0.03031  -0.03399   0.67632   0.00322  -0.10718   0.10733
 147  H 3   g 3      0.03206   0.72088  -0.02034  -0.02031   0.04089  -0.11461
 148  H 3   g 4      0.01183  -0.03082  -0.25675  -0.04553   0.00841  -0.06444
 149  H 3   g 5      0.38095   0.09082  -0.02244  -0.02244  -0.11254  -0.15906
 150  H 3   g 6     -0.01183   0.03081   0.04553   0.25675  -0.00841   0.01309
 151  H 3   g 7     -0.00000   0.00000   0.06146  -0.06146   0.00000   0.23286
 152  H 3   g 8     -0.03031  -0.03402   0.00322   0.67632  -0.10718   0.05613
 153  H 3   g 9      0.32215  -0.01369  -0.06841  -0.06841   0.25285   0.05446
 154  H 4   g 1     -0.00000   0.00000   0.00010  -0.00010   0.00000   0.00318
 155  H 4   g 2     -0.17476  -0.01921  -0.05255  -0.02039   0.03097   0.02790
 156  H 4   g 3     -0.18739  -0.05688  -0.02192  -0.02193  -0.01783   0.02884
 157  H 4   g 4      0.06585   0.00812   0.02018   0.00701  -0.01494  -0.00793
 158  H 4   g 5     -0.04077   0.00333   0.01690   0.01690  -0.01035   0.02487
 159  H 4   g 6     -0.06585  -0.00812  -0.00701  -0.02018   0.01494  -0.00600
 160  H 4   g 7     -0.00000   0.00000   0.01154  -0.01154  -0.00000  -0.03028
 161  H 4   g 8     -0.17476  -0.01921  -0.02039  -0.05255   0.03097  -0.01540
 162  H 4   g 9     -0.03429   0.02263   0.00561   0.00561   0.04552  -0.00052
 163  H 4   g 1     -0.00000   0.00000   0.00989  -0.00989  -0.00000  -0.00981
 164  H 4   g 2      0.31109  -0.00381   0.07891  -0.00814  -0.06967  -0.06628
 165  H 4   g 3      0.33331   0.08554  -0.00457  -0.00457   0.03051  -0.06737
 166  H 4   g 4     -0.11737   0.01063  -0.03047  -0.00644   0.03685   0.01611
 167  H 4   g 5      0.09001  -0.02819  -0.05895  -0.05896   0.01841  -0.05336
 168  H 4   g 6      0.11737  -0.01063   0.00644   0.03047  -0.03685   0.01008
 169  H 4   g 7      0.00000  -0.00000  -0.02611   0.02611   0.00000   0.06147
 170  H 4   g 8      0.31109  -0.00381  -0.00814   0.07891  -0.06966   0.02610
 171  H 4   g 9      0.07605  -0.06840  -0.03023  -0.03023  -0.09402  -0.00140
 172  H 4   g 1      0.00000   0.00000   0.11480  -0.11480  -0.00000  -0.06106
 173  H 4   g 2      0.04990   0.03901   0.05925  -0.04760   0.13980   0.07724
 174  H 4   g 3      0.05301   0.06532  -0.00759  -0.00759   0.02373   0.10652
 175  H 4   g 4     -0.01887   0.11130  -0.02187  -0.10618   0.01795  -0.09502
 176  H 4   g 5      0.02282   0.18590   0.07584   0.07585  -0.01850   0.05063
 177  H 4   g 6      0.01887  -0.11129   0.10619   0.02187  -0.01795   0.00825
 178  H 4   g 7      0.00000  -0.00000  -0.10023   0.10023  -0.00000  -0.05630
 179  H 4   g 8      0.04990   0.03901  -0.04760   0.05925   0.13979   0.02249
 180  H 4   g 9      0.01925   0.00943   0.13914   0.13914   0.09391   0.00612
 181  H 4   g 1     -0.00000   0.00000   0.03968  -0.03968  -0.00000  -0.04264
 182  H 4   g 2      0.03031   0.03394   0.67632   0.00322   0.10718   0.10733
 183  H 4   g 3      0.03206   0.72088   0.02039   0.02042   0.04089   0.11461
 184  H 4   g 4     -0.01183   0.03085  -0.25675  -0.04553  -0.00841  -0.06443
 185  H 4   g 5      0.38095   0.09082   0.02244   0.02245  -0.11253   0.15906
 186  H 4   g 6      0.01183  -0.03085   0.04553   0.25675   0.00841   0.01309
 187  H 4   g 7      0.00000  -0.00000  -0.06146   0.06146  -0.00000  -0.23286
 188  H 4   g 8      0.03031   0.03392   0.00322   0.67633   0.10718   0.05612
 189  H 4   g 9      0.32215  -0.01370   0.06841   0.06841   0.25285  -0.05447
                         7         8         9        10        11        12
 eigenvalues:          0.251     0.328     0.343     0.362     0.368     0.368
   1  C     g 1      0.00000  -0.00000   0.00000  -0.00000  -0.00000  -0.00000
   2  C     g 2     -0.00007  -0.00000  -0.00000   0.00000  -0.00000  -0.00001
   3  C     g 3      0.00000   0.00000  -0.00000   0.00000   0.00000  -0.00000
   4  C     g 4      0.00006  -0.00000   0.00000  -0.00000  -0.00000   0.00031
   5  C     g 5     -0.00000   0.00020  -0.00000   0.00048  -0.00000   0.00000
   6  C     g 6     -0.00000   0.00000   0.00000   0.00000   0.00031   0.00000
   7  C     g 7     -0.00000  -0.00000   0.00033   0.00000  -0.00000  -0.00000
   8  C     g 8      0.00000  -0.00000   0.00000   0.00000   0.00001   0.00000
   9  C     g 9      0.00000  -0.00020  -0.00000   0.00037  -0.00000   0.00000
  10  C     g 1     -0.00000  -0.00000  -0.00000  -0.00000  -0.00000  -0.00000
  11  C     g 2      0.00564   0.00000   0.00000  -0.00000   0.00000   0.00011
  12  C     g 3     -0.00000  -0.00000   0.00000  -0.00000  -0.00000   0.00000
  13  C     g 4     -0.00232   0.00000  -0.00000   0.00000   0.00000  -0.00201
  14  C     g 5      0.00000  -0.00155  -0.00000  -0.00317   0.00000  -0.00000
  15  C     g 6      0.00000  -0.00000  -0.00000  -0.00000  -0.00201  -0.00000
  16  C     g 7      0.00000   0.00000  -0.00267  -0.00000   0.00000   0.00000
  17  C     g 8      0.00000   0.00000  -0.00000  -0.00000  -0.00011  -0.00000
  18  C     g 9     -0.00000   0.00172   0.00000  -0.00256   0.00000  -0.00000
  19  C     g 1      0.00000   0.00000  -0.00000  -0.00000  -0.00000  -0.00000
  20  C     g 2     -0.02493  -0.00000  -0.00000   0.00000  -0.00000   0.00108
  21  C     g 3      0.00000   0.00000  -0.00000   0.00000   0.00000  -0.00000
  22  C     g 4      0.01145   0.00000   0.00000  -0.00000  -0.00000   0.03469
  23  C     g 5      0.00000  -0.00110  -0.00000   0.08722  -0.00000   0.00000
  24  C     g 6     -0.00000  -0.00000   0.00000   0.00000   0.03469   0.00000
  25  C     g 7     -0.00000   0.00000  -0.00908   0.00000  -0.00000  -0.00000
  26  C     g 8     -0.00000  -0.00000   0.00000   0.00000  -0.00108   0.00000
  27  C     g 9      0.00000   0.01500  -0.00000   0.06775  -0.00000   0.00000
  28  C     g 1     -0.00000  -0.00000   0.00000   0.00000  -0.00000  -0.00000
  29  C     g 2     -0.18436  -0.00000  -0.00000  -0.00000  -0.00000   0.01620
  30  C     g 3      0.00000  -0.00000   0.00000   0.00000  -0.00000   0.00000
  31  C     g 4      0.05982   0.00000  -0.00000  -0.00000   0.00000  -0.00150
  32  C     g 5      0.00000   0.03359   0.00000   0.07219   0.00000  -0.00000
  33  C     g 6     -0.00000  -0.00000  -0.00000   0.00000  -0.00150   0.00000
  34  C     g 7      0.00000  -0.00000   0.00170  -0.00000   0.00000   0.00000
  35  C     g 8     -0.00000  -0.00000   0.00000  -0.00000  -0.01620  -0.00000
  36  C     g 9      0.00000   0.00275   0.00000   0.07089  -0.00000   0.00000
  37  C     g 1     -0.00000  -0.00000   0.00000   0.00000  -0.00002  -0.00001
  38  C     g 2      0.12968   0.00000  -0.00001  -0.00000  -0.00000   0.16514
  39  C     g 3     -0.00000  -0.00000  -0.00000   0.00000   0.00002  -0.00001
  40  C     g 4     -0.01909   0.00001  -0.00001  -0.00001  -0.00000   0.96926
  41  C     g 5     -0.00000   0.00177  -0.00000   0.01514  -0.00000   0.00000
  42  C     g 6      0.00000  -0.00000  -0.00000   0.00000   0.96926   0.00000
  43  C     g 7      0.00000   0.00000   0.09086   0.00000  -0.00000  -0.00001
  44  C     g 8      0.00000   0.00000   0.00000  -0.00000  -0.16514  -0.00000
  45  C     g 9     -0.00000  -0.07371  -0.00000  -0.09081  -0.00000   0.00000
  46  H 1   g 1      0.00318   0.00000   0.00547   0.00000  -0.00165   0.00165
  47  H 1   g 2      0.01540  -0.01240  -0.01541  -0.00800   0.00824  -0.00259
  48  H 1   g 3     -0.02884   0.01954  -0.00000  -0.00967  -0.00474  -0.00474
  49  H 1   g 4     -0.00600  -0.00028   0.00908   0.00284  -0.00018  -0.01314
  50  H 1   g 5      0.02487   0.00233   0.00000  -0.01100  -0.00875  -0.00875
  51  H 1   g 6      0.00793  -0.00028  -0.00908   0.00284  -0.01313  -0.00018
  52  H 1   g 7      0.03028   0.00000   0.00276  -0.00000  -0.00934   0.00934
  53  H 1   g 8      0.02790   0.01240  -0.01541   0.00800   0.00259  -0.00824
  54  H 1   g 9     -0.00052  -0.00214  -0.00000  -0.00619   0.00967   0.00967
  55  H 1   g 1     -0.00981  -0.00000  -0.00168  -0.00000   0.00376  -0.00376
  56  H 1   g 2     -0.02610   0.02600   0.03979   0.01499  -0.01551   0.00527
  57  H 1   g 3      0.06737  -0.04830   0.00000   0.01929   0.00741   0.00741
  58  H 1   g 4      0.01008  -0.00861  -0.01652  -0.00463  -0.00032   0.02602
  59  H 1   g 5     -0.05336  -0.00059  -0.00000   0.02328   0.01910   0.01910
  60  H 1   g 6     -0.01611  -0.00861   0.01652  -0.00463   0.02602  -0.00032
  61  H 1   g 7     -0.06147  -0.00000   0.00062   0.00000   0.01920  -0.01919
  62  H 1   g 8     -0.06628  -0.02600   0.03979  -0.01499  -0.00527   0.01551
  63  H 1   g 9     -0.00140  -0.00030   0.00000   0.01445  -0.02113  -0.02113
  64  H 1   g 1     -0.06106  -0.00000  -0.03073   0.00000   0.00281  -0.00281
  65  H 1   g 2     -0.02249  -0.02238  -0.06233  -0.00332   0.01652  -0.00004
  66  H 1   g 3     -0.10652   0.07097  -0.00000  -0.00691  -0.00698  -0.00698
  67  H 1   g 4      0.00825   0.03841   0.00739  -0.00213  -0.00775  -0.01994
  68  H 1   g 5      0.05063   0.05269   0.00000   0.00821  -0.03402  -0.03402
  69  H 1   g 6      0.09502   0.03841  -0.00739  -0.00213  -0.01994  -0.00775
  70  H 1   g 7      0.05630   0.00000   0.07157  -0.00000  -0.03363   0.03363
  71  H 1   g 8      0.07724   0.02238  -0.06233   0.00332   0.00004  -0.01652
  72  H 1   g 9      0.00612  -0.05162  -0.00000   0.02142   0.03606   0.03606
  73  H 1   g 1     -0.04263  -0.00000  -0.32786   0.00000   0.13297  -0.13298
  74  H 1   g 2     -0.05612   0.06738  -0.13734   0.13257  -0.17376   0.01047
  75  H 1   g 3     -0.11461   0.11137  -0.00000   0.13143   0.11569   0.11569
  76  H 1   g 4      0.01309   0.27637  -0.12711  -0.07000  -0.09760   0.04434
  77  H 1   g 5      0.15906  -0.02797  -0.00000   0.24513   0.15624   0.15624
  78  H 1   g 6      0.06443   0.27636   0.12711  -0.06999   0.04433  -0.09762
  79  H 1   g 7      0.23286  -0.00000  -0.07782   0.00000   0.14813  -0.14812
  80  H 1   g 8      0.10733  -0.06738  -0.13734  -0.13257  -0.01047   0.17375
  81  H 1   g 9     -0.05447   0.07891   0.00000   0.19296  -0.15340  -0.15340
  82  H 2   g 1     -0.00318  -0.00000   0.00547  -0.00000   0.00165  -0.00165
  83  H 2   g 2      0.01540   0.01240   0.01541   0.00800   0.00824  -0.00259
  84  H 2   g 3      0.02884   0.01954   0.00000  -0.00967   0.00474   0.00474
  85  H 2   g 4     -0.00600   0.00028  -0.00908  -0.00284  -0.00018  -0.01314
  86  H 2   g 5     -0.02487   0.00233  -0.00000  -0.01100   0.00875   0.00875
  87  H 2   g 6      0.00793   0.00028   0.00908  -0.00284  -0.01314  -0.00018
  88  H 2   g 7     -0.03028  -0.00000   0.00276   0.00000   0.00934  -0.00934
  89  H 2   g 8      0.02790  -0.01240   0.01541  -0.00800   0.00259  -0.00824
  90  H 2   g 9      0.00052  -0.00214   0.00000  -0.00619  -0.00967  -0.00967
  91  H 2   g 1      0.00981   0.00000  -0.00168   0.00000  -0.00376   0.00376
  92  H 2   g 2     -0.02610  -0.02600  -0.03979  -0.01499  -0.01551   0.00527
  93  H 2   g 3     -0.06737  -0.04830  -0.00000   0.01929  -0.00741  -0.00741
  94  H 2   g 4      0.01008   0.00861   0.01652   0.00463  -0.00032   0.02602
  95  H 2   g 5      0.05336  -0.00059   0.00000   0.02328  -0.01910  -0.01910
  96  H 2   g 6     -0.01611   0.00861  -0.01652   0.00463   0.02602  -0.00032
  97  H 2   g 7      0.06147   0.00000   0.00062  -0.00000  -0.01919   0.01919
  98  H 2   g 8     -0.06628   0.02600  -0.03979   0.01499  -0.00527   0.01551
  99  H 2   g 9      0.00140  -0.00030  -0.00000   0.01445   0.02113   0.02113
 100  H 2   g 1      0.06106   0.00000  -0.03073  -0.00000  -0.00281   0.00281
 101  H 2   g 2     -0.02249   0.02238   0.06233   0.00332   0.01652  -0.00004
 102  H 2   g 3      0.10652   0.07097   0.00000  -0.00691   0.00698   0.00698
 103  H 2   g 4      0.00825  -0.03841  -0.00739   0.00213  -0.00775  -0.01994
 104  H 2   g 5     -0.05063   0.05269  -0.00000   0.00821   0.03402   0.03402
 105  H 2   g 6      0.09502  -0.03841   0.00739   0.00213  -0.01994  -0.00775
 106  H 2   g 7     -0.05630  -0.00000   0.07157   0.00000   0.03363  -0.03363
 107  H 2   g 8      0.07724  -0.02238   0.06233  -0.00332   0.00004  -0.01652
 108  H 2   g 9     -0.00612  -0.05162   0.00000   0.02142  -0.03606  -0.03606
 109  H 2   g 1      0.04264   0.00000  -0.32786  -0.00000  -0.13298   0.13297
 110  H 2   g 2     -0.05613  -0.06738   0.13734  -0.13257  -0.17375   0.01048
 111  H 2   g 3      0.11461   0.11137   0.00000   0.13143  -0.11569  -0.11569
 112  H 2   g 4      0.01309  -0.27636   0.12711   0.06999  -0.09762   0.04434
 113  H 2   g 5     -0.15906  -0.02797   0.00000   0.24513  -0.15624  -0.15624
 114  H 2   g 6      0.06444  -0.27637  -0.12711   0.07000   0.04435  -0.09761
 115  H 2   g 7     -0.23286   0.00000  -0.07782  -0.00000  -0.14811   0.14812
 116  H 2   g 8      0.10733   0.06738   0.13734   0.13257  -0.01047   0.17376
 117  H 2   g 9      0.05447   0.07891  -0.00000   0.19296   0.15340   0.15340
 118  H 3   g 1     -0.00318  -0.00000  -0.00547  -0.00000  -0.00165  -0.00165
 119  H 3   g 2      0.01540  -0.01240  -0.01541  -0.00800  -0.00824  -0.00259
 120  H 3   g 3      0.02884  -0.01954   0.00000   0.00967  -0.00474   0.00474
 121  H 3   g 4     -0.00600  -0.00028   0.00908   0.00284   0.00018  -0.01314
 122  H 3   g 5      0.02487   0.00233   0.00000  -0.01100   0.00875  -0.00875
 123  H 3   g 6     -0.00793   0.00028   0.00908  -0.00284  -0.01313   0.00018
 124  H 3   g 7      0.03028   0.00000   0.00276  -0.00000   0.00934   0.00934
 125  H 3   g 8     -0.02791  -0.01240   0.01541  -0.00800   0.00259   0.00824
 126  H 3   g 9     -0.00052  -0.00214  -0.00000  -0.00619  -0.00967   0.00967
 127  H 3   g 1      0.00981   0.00000   0.00168   0.00000   0.00376   0.00376
 128  H 3   g 2     -0.02610   0.02600   0.03979   0.01499   0.01551   0.00527
 129  H 3   g 3     -0.06737   0.04830  -0.00000  -0.01929   0.00741  -0.00741
 130  H 3   g 4      0.01008  -0.00861  -0.01652  -0.00463   0.00032   0.02602
 131  H 3   g 5     -0.05336  -0.00059  -0.00000   0.02328  -0.01910   0.01910
 132  H 3   g 6      0.01611   0.00861  -0.01652   0.00463   0.02602   0.00032
 133  H 3   g 7     -0.06147  -0.00000   0.00062   0.00000  -0.01920  -0.01920
 134  H 3   g 8      0.06628   0.02600  -0.03979   0.01499  -0.00527  -0.01551
 135  H 3   g 9     -0.00140  -0.00031   0.00000   0.01445   0.02113  -0.02113
 136  H 3   g 1      0.06106   0.00000   0.03073  -0.00000   0.00281   0.00281
 137  H 3   g 2     -0.02249  -0.02238  -0.06233  -0.00332  -0.01652  -0.00004
 138  H 3   g 3      0.10652  -0.07097   0.00000   0.00691  -0.00698   0.00698
 139  H 3   g 4      0.00825   0.03841   0.00739  -0.00213   0.00775  -0.01994
 140  H 3   g 5      0.05063   0.05269   0.00000   0.00821   0.03402  -0.03402
 141  H 3   g 6     -0.09502  -0.03841   0.00739   0.00213  -0.01994   0.00775
 142  H 3   g 7      0.05630   0.00000   0.07157  -0.00000   0.03363   0.03363
 143  H 3   g 8     -0.07724  -0.02238   0.06233  -0.00332   0.00004   0.01652
 144  H 3   g 9      0.00612  -0.05162  -0.00000   0.02142  -0.03606   0.03606
 145  H 3   g 1      0.04263   0.00000   0.32786  -0.00000   0.13298   0.13298
 146  H 3   g 2     -0.05612   0.06738  -0.13734   0.13257   0.17375   0.01047
 147  H 3   g 3      0.11461  -0.11137   0.00000  -0.13143   0.11569  -0.11569
 148  H 3   g 4      0.01309   0.27636  -0.12711  -0.06999   0.09761   0.04433
 149  H 3   g 5      0.15906  -0.02796  -0.00000   0.24512  -0.15624   0.15624
 150  H 3   g 6     -0.06443  -0.27636  -0.12711   0.06999   0.04433   0.09761
 151  H 3   g 7      0.23286  -0.00000  -0.07782   0.00000  -0.14813  -0.14813
 152  H 3   g 8     -0.10733   0.06738   0.13734   0.13257  -0.01047  -0.17375
 153  H 3   g 9     -0.05447   0.07891   0.00000   0.19297   0.15340  -0.15340
 154  H 4   g 1      0.00318   0.00000  -0.00547   0.00000   0.00165   0.00165
 155  H 4   g 2      0.01540   0.01240   0.01541   0.00800  -0.00824  -0.00259
 156  H 4   g 3     -0.02884  -0.01954  -0.00000   0.00967   0.00474  -0.00474
 157  H 4   g 4     -0.00600   0.00028  -0.00908  -0.00284   0.00018  -0.01314
 158  H 4   g 5     -0.02487   0.00233  -0.00000  -0.01100  -0.00875   0.00875
 159  H 4   g 6     -0.00793  -0.00028  -0.00908   0.00284  -0.01314   0.00018
 160  H 4   g 7     -0.03028  -0.00000   0.00276   0.00000  -0.00934  -0.00934
 161  H 4   g 8     -0.02790   0.01240  -0.01541   0.00800   0.00259   0.00824
 162  H 4   g 9      0.00052  -0.00214   0.00000  -0.00619   0.00967  -0.00967
 163  H 4   g 1     -0.00981  -0.00000   0.00168  -0.00000  -0.00376  -0.00376
 164  H 4   g 2     -0.02610  -0.02600  -0.03979  -0.01499   0.01551   0.00527
 165  H 4   g 3      0.06737   0.04830   0.00000  -0.01929  -0.00741   0.00741
 166  H 4   g 4      0.01008   0.00861   0.01652   0.00463   0.00032   0.02602
 167  H 4   g 5      0.05336  -0.00059   0.00000   0.02328   0.01910  -0.01910
 168  H 4   g 6      0.01611  -0.00861   0.01652  -0.00463   0.02602   0.00032
 169  H 4   g 7      0.06147   0.00000   0.00062  -0.00000   0.01919   0.01919
 170  H 4   g 8      0.06628  -0.02600   0.03979  -0.01499  -0.00527  -0.01551
 171  H 4   g 9      0.00140  -0.00030  -0.00000   0.01445  -0.02113   0.02113
 172  H 4   g 1     -0.06106  -0.00000   0.03073   0.00000  -0.00281  -0.00281
 173  H 4   g 2     -0.02249   0.02238   0.06233   0.00332  -0.01652  -0.00004
 174  H 4   g 3     -0.10652  -0.07097  -0.00000   0.00691   0.00698  -0.00698
 175  H 4   g 4      0.00825  -0.03841  -0.00739   0.00213   0.00775  -0.01994
 176  H 4   g 5     -0.05063   0.05269  -0.00000   0.00821  -0.03402   0.03402
 177  H 4   g 6     -0.09502   0.03841  -0.00739  -0.00213  -0.01994   0.00775
 178  H 4   g 7     -0.05630  -0.00000   0.07157   0.00000  -0.03362  -0.03363
 179  H 4   g 8     -0.07724   0.02238  -0.06233   0.00332   0.00004   0.01652
 180  H 4   g 9     -0.00612  -0.05162   0.00000   0.02142   0.03606  -0.03606
 181  H 4   g 1     -0.04264  -0.00000   0.32786   0.00000  -0.13297  -0.13297
 182  H 4   g 2     -0.05612  -0.06738   0.13734  -0.13257   0.17376   0.01047
 183  H 4   g 3     -0.11461  -0.11136  -0.00000  -0.13143  -0.11569   0.11569
 184  H 4   g 4      0.01309  -0.27637   0.12711   0.06999   0.09762   0.04435
 185  H 4   g 5     -0.15906  -0.02797   0.00000   0.24513   0.15624  -0.15624
 186  H 4   g 6     -0.06444   0.27637   0.12711  -0.07000   0.04435   0.09761
 187  H 4   g 7     -0.23286   0.00000  -0.07782  -0.00000   0.14811   0.14811
 188  H 4   g 8     -0.10733  -0.06738  -0.13734  -0.13257  -0.01047  -0.17376
 189  H 4   g 9      0.05447   0.07892  -0.00000   0.19296  -0.15340   0.15340
                        13        14        15        16        17        18
 eigenvalues:          0.374     0.376     0.377     0.380     0.381     0.381
   1  C     g 1     -0.00000   0.00022  -0.00000   0.00000  -0.00000   0.00000
   2  C     g 2      0.00000  -0.00000   0.00000  -0.00000   0.00065   0.00000
   3  C     g 3      0.00000   0.00000  -0.00000   0.00000  -0.00000  -0.00000
   4  C     g 4     -0.00000   0.00000  -0.00000   0.00000  -0.00011  -0.00000
   5  C     g 5      0.00000   0.00000   0.00027   0.00007   0.00000   0.00000
   6  C     g 6     -0.00000   0.00000   0.00000  -0.00000  -0.00000   0.00011
   7  C     g 7      0.00037   0.00000  -0.00000   0.00000  -0.00000   0.00000
   8  C     g 8     -0.00000   0.00000   0.00000  -0.00000  -0.00000   0.00065
   9  C     g 9     -0.00000   0.00000  -0.00024   0.00023   0.00000   0.00000
  10  C     g 1      0.00000  -0.00047  -0.00000  -0.00000   0.00000  -0.00000
  11  C     g 2     -0.00000   0.00000  -0.00000   0.00000  -0.00553  -0.00000
  12  C     g 3     -0.00000  -0.00000   0.00000  -0.00000   0.00000   0.00000
  13  C     g 4      0.00000  -0.00000  -0.00000  -0.00000   0.00030   0.00000
  14  C     g 5     -0.00000   0.00000  -0.00138  -0.00037  -0.00000  -0.00000
  15  C     g 6      0.00000  -0.00000   0.00000   0.00000   0.00000  -0.00030
  16  C     g 7     -0.00208  -0.00000   0.00000  -0.00000   0.00000  -0.00000
  17  C     g 8      0.00000  -0.00000  -0.00000   0.00000   0.00000  -0.00553
  18  C     g 9      0.00000  -0.00000   0.00134  -0.00120  -0.00000  -0.00000
  19  C     g 1     -0.00000   0.02501  -0.00000   0.00000  -0.00000   0.00000
  20  C     g 2      0.00000  -0.00000   0.00000  -0.00001   0.06557   0.00000
  21  C     g 3      0.00000   0.00000  -0.00000   0.00000  -0.00000  -0.00000
  22  C     g 4     -0.00000   0.00000  -0.00000   0.00000  -0.00746  -0.00000
  23  C     g 5      0.00000   0.00000   0.02749   0.03210   0.00001   0.00000
  24  C     g 6     -0.00000   0.00000   0.00000  -0.00000  -0.00000   0.00746
  25  C     g 7      0.03176   0.00000  -0.00000   0.00000  -0.00000   0.00000
  26  C     g 8     -0.00000   0.00000   0.00000  -0.00001  -0.00000   0.06557
  27  C     g 9     -0.00000  -0.00000  -0.01534   0.04135   0.00001   0.00000
  28  C     g 1     -0.00000   0.02911  -0.00000  -0.00000   0.00000  -0.00001
  29  C     g 2     -0.00000   0.00000  -0.00000   0.00002  -0.08500  -0.00000
  30  C     g 3      0.00000  -0.00000   0.00000  -0.00000   0.00000   0.00000
  31  C     g 4      0.00000  -0.00000  -0.00000   0.00000  -0.00509  -0.00000
  32  C     g 5     -0.00000  -0.00000  -0.08139  -0.10656  -0.00002  -0.00001
  33  C     g 6      0.00000  -0.00000   0.00000  -0.00000  -0.00000   0.00509
  34  C     g 7     -0.04643  -0.00000   0.00000  -0.00000   0.00000  -0.00000
  35  C     g 8      0.00000  -0.00000  -0.00000   0.00001   0.00000  -0.08500
  36  C     g 9     -0.00000  -0.00000  -0.01442  -0.10994  -0.00002  -0.00001
  37  C     g 1     -0.00000   0.90585  -0.00000   0.00000   0.00001  -0.00003
  38  C     g 2      0.00003  -0.00002   0.00003  -0.00023   1.01242   0.00000
  39  C     g 3     -0.00000   0.00000  -0.00000   0.00000  -0.00001  -0.00002
  40  C     g 4      0.00000   0.00002  -0.00001   0.00002  -0.13069  -0.00000
  41  C     g 5      0.00000   0.00000   0.81206   0.49503   0.00009   0.00004
  42  C     g 6      0.00000   0.00004   0.00000  -0.00001  -0.00000   0.13069
  43  C     g 7      0.90160   0.00000  -0.00000   0.00000  -0.00003   0.00001
  44  C     g 8     -0.00002   0.00005   0.00001  -0.00011  -0.00000   1.01242
  45  C     g 9     -0.00000  -0.00000  -0.36901   0.85151   0.00020   0.00009
  46  H 1   g 1      0.00674  -0.00861  -0.00000   0.00000  -0.00340  -0.00340
  47  H 1   g 2     -0.00771  -0.00212  -0.00453   0.00455  -0.01277   0.00116
  48  H 1   g 3     -0.00000  -0.00000   0.01273  -0.00202  -0.00857   0.00857
  49  H 1   g 4      0.00685   0.00485  -0.00478   0.00062  -0.00228  -0.00264
  50  H 1   g 5     -0.00000   0.00000  -0.01591  -0.00601  -0.00376   0.00376
  51  H 1   g 6     -0.00685  -0.00486  -0.00478   0.00062   0.00264   0.00228
  52  H 1   g 7     -0.02015   0.02124  -0.00000   0.00000  -0.00705  -0.00705
  53  H 1   g 8     -0.00771  -0.00212   0.00453  -0.00454   0.00116  -0.01277
  54  H 1   g 9      0.00000  -0.00000   0.01100  -0.01517   0.00074  -0.00075
  55  H 1   g 1     -0.01415   0.01624   0.00000  -0.00000   0.00580   0.00580
  56  H 1   g 2      0.01435   0.00221   0.00989  -0.00697   0.02501  -0.00523
  57  H 1   g 3      0.00000   0.00000  -0.02363   0.00561   0.02022  -0.02021
  58  H 1   g 4     -0.01362  -0.00934   0.00952  -0.00237   0.00557   0.00553
  59  H 1   g 5      0.00000  -0.00000   0.02964   0.01165   0.00580  -0.00580
  60  H 1   g 6      0.01362   0.00935   0.00952  -0.00237  -0.00553  -0.00558
  61  H 1   g 7      0.03728  -0.04482   0.00000  -0.00000   0.01117   0.01117
  62  H 1   g 8      0.01435   0.00222  -0.00989   0.00696  -0.00523   0.02501
  63  H 1   g 9     -0.00000   0.00000  -0.02037   0.02837  -0.00136   0.00137
  64  H 1   g 1      0.01226  -0.00130  -0.00000   0.00000  -0.01328  -0.01328
  65  H 1   g 2     -0.02458  -0.00171  -0.01087   0.02368  -0.03779   0.00469
  66  H 1   g 3     -0.00000  -0.00000   0.03808   0.00640  -0.03071   0.03072
  67  H 1   g 4      0.01618   0.00273  -0.00696  -0.00496  -0.00756  -0.01130
  68  H 1   g 5     -0.00000   0.00000  -0.04585  -0.03231  -0.00106   0.00105
  69  H 1   g 6     -0.01618  -0.00273  -0.00695  -0.00496   0.01130   0.00755
  70  H 1   g 7     -0.04725   0.07900  -0.00000   0.00001  -0.01853  -0.01854
  71  H 1   g 8     -0.02458  -0.00172   0.01087  -0.02367   0.00469  -0.03781
  72  H 1   g 9      0.00000  -0.00000   0.01594  -0.05199   0.00760  -0.00762
  73  H 1   g 1     -0.05920   0.00631   0.00001  -0.00001   0.03605   0.03605
  74  H 1   g 2      0.05050   0.03940  -0.00747  -0.14148   0.04485  -0.01645
  75  H 1   g 3      0.00000   0.00000  -0.12407  -0.08999   0.06587  -0.06590
  76  H 1   g 4     -0.05985  -0.24123   0.06710   0.03374   0.02163  -0.01420
  77  H 1   g 5      0.00001  -0.00001   0.06620  -0.03546   0.01690  -0.01692
  78  H 1   g 6      0.05984   0.24125   0.06710   0.03374   0.01424  -0.02165
  79  H 1   g 7      0.13978  -0.34534   0.00000  -0.00003   0.07415   0.07420
  80  H 1   g 8      0.05050   0.03941   0.00747   0.14148  -0.01641   0.04491
  81  H 1   g 9     -0.00000   0.00001  -0.13114   0.04303  -0.01183   0.01185
  82  H 2   g 1      0.00674  -0.00861   0.00000  -0.00000   0.00340   0.00340
  83  H 2   g 2      0.00771   0.00212   0.00453  -0.00454  -0.01277   0.00116
  84  H 2   g 3      0.00000   0.00000   0.01273  -0.00202   0.00857  -0.00857
  85  H 2   g 4     -0.00685  -0.00486   0.00478  -0.00062  -0.00228  -0.00264
  86  H 2   g 5      0.00000  -0.00000  -0.01591  -0.00601   0.00376  -0.00376
  87  H 2   g 6      0.00685   0.00485   0.00478  -0.00062   0.00264   0.00228
  88  H 2   g 7     -0.02015   0.02124   0.00000  -0.00000   0.00705   0.00705
  89  H 2   g 8      0.00771   0.00212  -0.00453   0.00455   0.00116  -0.01277
  90  H 2   g 9     -0.00000   0.00000   0.01100  -0.01517  -0.00075   0.00074
  91  H 2   g 1     -0.01415   0.01624  -0.00000   0.00000  -0.00580  -0.00580
  92  H 2   g 2     -0.01435  -0.00222  -0.00989   0.00695   0.02501  -0.00523
  93  H 2   g 3     -0.00000  -0.00000  -0.02363   0.00562  -0.02021   0.02021
  94  H 2   g 4      0.01362   0.00935  -0.00952   0.00237   0.00558   0.00553
  95  H 2   g 5     -0.00000   0.00000   0.02964   0.01165  -0.00580   0.00580
  96  H 2   g 6     -0.01362  -0.00934  -0.00952   0.00237  -0.00553  -0.00557
  97  H 2   g 7      0.03728  -0.04482  -0.00000   0.00000  -0.01117  -0.01117
  98  H 2   g 8     -0.01435  -0.00221   0.00989  -0.00696  -0.00523   0.02501
  99  H 2   g 9      0.00000  -0.00000  -0.02037   0.02837   0.00138  -0.00137
 100  H 2   g 1      0.01226  -0.00130   0.00000  -0.00000   0.01328   0.01327
 101  H 2   g 2      0.02458   0.00172   0.01087  -0.02366  -0.03781   0.00469
 102  H 2   g 3      0.00000   0.00000   0.03808   0.00639   0.03072  -0.03071
 103  H 2   g 4     -0.01618  -0.00273   0.00695   0.00496  -0.00755  -0.01130
 104  H 2   g 5      0.00000  -0.00000  -0.04585  -0.03231   0.00105  -0.00106
 105  H 2   g 6      0.01618   0.00273   0.00695   0.00496   0.01130   0.00756
 106  H 2   g 7     -0.04725   0.07900   0.00000  -0.00001   0.01854   0.01853
 107  H 2   g 8      0.02458   0.00171  -0.01087   0.02367   0.00470  -0.03780
 108  H 2   g 9     -0.00000   0.00000   0.01594  -0.05198  -0.00763   0.00761
 109  H 2   g 1     -0.05920   0.00631  -0.00001   0.00001  -0.03605  -0.03604
 110  H 2   g 2     -0.05050  -0.03941   0.00747   0.14147   0.04493  -0.01643
 111  H 2   g 3     -0.00000  -0.00000  -0.12407  -0.08998  -0.06590   0.06588
 112  H 2   g 4      0.05985   0.24125  -0.06710  -0.03375   0.02164  -0.01425
 113  H 2   g 5     -0.00001   0.00001   0.06620  -0.03546  -0.01692   0.01691
 114  H 2   g 6     -0.05985  -0.24123  -0.06710  -0.03375   0.01421  -0.02162
 115  H 2   g 7      0.13978  -0.34534  -0.00000   0.00003  -0.07419  -0.07414
 116  H 2   g 8     -0.05050  -0.03941  -0.00747  -0.14148  -0.01647   0.04487
 117  H 2   g 9      0.00000  -0.00001  -0.13114   0.04303   0.01185  -0.01184
 118  H 3   g 1     -0.00674  -0.00861   0.00000  -0.00000   0.00340  -0.00340
 119  H 3   g 2     -0.00771   0.00212  -0.00453   0.00455  -0.01277  -0.00116
 120  H 3   g 3      0.00000  -0.00000  -0.01273   0.00201   0.00857   0.00857
 121  H 3   g 4      0.00685  -0.00485  -0.00478   0.00062  -0.00228   0.00264
 122  H 3   g 5     -0.00000  -0.00000  -0.01591  -0.00601  -0.00376  -0.00376
 123  H 3   g 6      0.00685  -0.00486   0.00478  -0.00062  -0.00264   0.00228
 124  H 3   g 7     -0.02015  -0.02124  -0.00000   0.00000  -0.00705   0.00705
 125  H 3   g 8      0.00771  -0.00212  -0.00453   0.00455  -0.00115  -0.01277
 126  H 3   g 9      0.00000   0.00000   0.01100  -0.01517   0.00074   0.00074
 127  H 3   g 1      0.01415   0.01624  -0.00000   0.00000  -0.00580   0.00580
 128  H 3   g 2      0.01435  -0.00222   0.00989  -0.00697   0.02501   0.00523
 129  H 3   g 3     -0.00000   0.00000   0.02363  -0.00561  -0.02022  -0.02022
 130  H 3   g 4     -0.01362   0.00935   0.00952  -0.00237   0.00558  -0.00553
 131  H 3   g 5      0.00000   0.00000   0.02964   0.01165   0.00580   0.00580
 132  H 3   g 6     -0.01362   0.00935  -0.00952   0.00237   0.00553  -0.00558
 133  H 3   g 7      0.03728   0.04482   0.00000  -0.00000   0.01117  -0.01117
 134  H 3   g 8     -0.01435   0.00222   0.00989  -0.00696   0.00523   0.02501
 135  H 3   g 9     -0.00000  -0.00000  -0.02037   0.02837  -0.00136  -0.00137
 136  H 3   g 1     -0.01226  -0.00130   0.00000  -0.00000   0.01328  -0.01328
 137  H 3   g 2     -0.02458   0.00171  -0.01087   0.02368  -0.03780  -0.00469
 138  H 3   g 3      0.00000  -0.00000  -0.03808  -0.00641   0.03072   0.03072
 139  H 3   g 4      0.01618  -0.00273  -0.00695  -0.00496  -0.00756   0.01130
 140  H 3   g 5     -0.00000  -0.00000  -0.04585  -0.03231  -0.00106  -0.00106
 141  H 3   g 6      0.01618  -0.00273   0.00695   0.00496  -0.01130   0.00756
 142  H 3   g 7     -0.04725  -0.07900  -0.00000   0.00000  -0.01854   0.01854
 143  H 3   g 8      0.02458  -0.00172  -0.01087   0.02368  -0.00469  -0.03780
 144  H 3   g 9      0.00000   0.00000   0.01594  -0.05199   0.00760   0.00761
 145  H 3   g 1      0.05920   0.00631  -0.00000   0.00000  -0.03605   0.03605
 146  H 3   g 2      0.05050  -0.03940  -0.00747  -0.14149   0.04486   0.01642
 147  H 3   g 3     -0.00000   0.00000   0.12407   0.09001  -0.06587  -0.06588
 148  H 3   g 4     -0.05985   0.24124   0.06710   0.03374   0.02165   0.01421
 149  H 3   g 5      0.00000   0.00000   0.06620  -0.03546   0.01690   0.01691
 150  H 3   g 6     -0.05984   0.24124  -0.06710  -0.03374  -0.01422  -0.02166
 151  H 3   g 7      0.13977   0.34534   0.00000  -0.00001   0.07418  -0.07420
 152  H 3   g 8     -0.05051   0.03941  -0.00747  -0.14149   0.01641   0.04488
 153  H 3   g 9     -0.00000  -0.00000  -0.13113   0.04304  -0.01183  -0.01183
 154  H 4   g 1     -0.00674  -0.00861  -0.00000   0.00000  -0.00340   0.00340
 155  H 4   g 2      0.00771  -0.00212   0.00453  -0.00454  -0.01277  -0.00116
 156  H 4   g 3     -0.00000   0.00000  -0.01273   0.00202  -0.00857  -0.00857
 157  H 4   g 4     -0.00685   0.00485   0.00478  -0.00062  -0.00228   0.00264
 158  H 4   g 5      0.00000   0.00000  -0.01591  -0.00601   0.00376   0.00376
 159  H 4   g 6     -0.00685   0.00485  -0.00478   0.00062  -0.00264   0.00228
 160  H 4   g 7     -0.02015  -0.02124   0.00000  -0.00000   0.00705  -0.00705
 161  H 4   g 8     -0.00771   0.00212   0.00453  -0.00454  -0.00116  -0.01277
 162  H 4   g 9     -0.00000  -0.00000   0.01100  -0.01517  -0.00075  -0.00075
 163  H 4   g 1      0.01415   0.01624   0.00000  -0.00000   0.00579  -0.00579
 164  H 4   g 2     -0.01435   0.00222  -0.00989   0.00695   0.02501   0.00523
 165  H 4   g 3      0.00000  -0.00000   0.02363  -0.00562   0.02021   0.02021
 166  H 4   g 4      0.01362  -0.00935  -0.00952   0.00237   0.00558  -0.00553
 167  H 4   g 5     -0.00000  -0.00000   0.02964   0.01165  -0.00580  -0.00580
 168  H 4   g 6      0.01362  -0.00934   0.00952  -0.00237   0.00553  -0.00558
 169  H 4   g 7      0.03728   0.04482  -0.00000   0.00000  -0.01117   0.01117
 170  H 4   g 8      0.01435  -0.00222  -0.00989   0.00696   0.00523   0.02501
 171  H 4   g 9      0.00000   0.00000  -0.02037   0.02837   0.00138   0.00137
 172  H 4   g 1     -0.01226  -0.00130  -0.00000   0.00000  -0.01328   0.01327
 173  H 4   g 2      0.02458  -0.00172   0.01087  -0.02366  -0.03781  -0.00470
 174  H 4   g 3     -0.00000   0.00000  -0.03808  -0.00639  -0.03072  -0.03071
 175  H 4   g 4     -0.01618   0.00273   0.00695   0.00496  -0.00755   0.01130
 176  H 4   g 5      0.00000   0.00000  -0.04585  -0.03231   0.00105   0.00105
 177  H 4   g 6     -0.01618   0.00273  -0.00695  -0.00496  -0.01130   0.00755
 178  H 4   g 7     -0.04725  -0.07900   0.00000  -0.00000   0.01853  -0.01853
 179  H 4   g 8     -0.02458   0.00172   0.01087  -0.02367  -0.00470  -0.03780
 180  H 4   g 9     -0.00000  -0.00000   0.01594  -0.05198  -0.00763  -0.00762
 181  H 4   g 1      0.05920   0.00632   0.00000  -0.00000   0.03605  -0.03604
 182  H 4   g 2     -0.05050   0.03941   0.00747   0.14146   0.04492   0.01646
 183  H 4   g 3      0.00000  -0.00000   0.12407   0.08996   0.06590   0.06589
 184  H 4   g 4      0.05985  -0.24124  -0.06710  -0.03376   0.02162   0.01424
 185  H 4   g 5     -0.00000  -0.00000   0.06620  -0.03546  -0.01692  -0.01692
 186  H 4   g 6      0.05985  -0.24124   0.06710   0.03376  -0.01423  -0.02161
 187  H 4   g 7      0.13978   0.34534  -0.00000   0.00001  -0.07416   0.07415
 188  H 4   g 8      0.05050  -0.03941   0.00747   0.14147   0.01647   0.04490
 189  H 4   g 9      0.00000   0.00000  -0.13114   0.04303   0.01186   0.01185
                        19        20        21        22        23        24
 eigenvalues:          0.384     0.384     0.384     0.385     0.403     0.409
   1  C     g 1     -0.00000  -0.00000   0.00041  -0.00000   0.00000  -0.00000
   2  C     g 2     -0.00004  -0.00000   0.00000   0.00000   0.00000  -0.00002
   3  C     g 3     -0.00000   0.00000   0.00000   0.00073   0.00008  -0.00000
   4  C     g 4      0.00036   0.00000   0.00000   0.00000   0.00000   0.00004
   5  C     g 5     -0.00000   0.00000   0.00000  -0.00000  -0.00000   0.00000
   6  C     g 6     -0.00000   0.00036   0.00000  -0.00000  -0.00000  -0.00000
   7  C     g 7      0.00000   0.00000   0.00000   0.00000  -0.00000  -0.00000
   8  C     g 8     -0.00000   0.00004  -0.00000   0.00000   0.00000   0.00000
   9  C     g 9      0.00000  -0.00000  -0.00000   0.00000   0.00000   0.00000
  10  C     g 1      0.00000   0.00000  -0.00650   0.00000  -0.00000  -0.00000
  11  C     g 2     -0.00035  -0.00000  -0.00000  -0.00000   0.00000  -0.00298
  12  C     g 3      0.00000  -0.00000  -0.00000  -0.00619   0.00241   0.00000
  13  C     g 4     -0.00621  -0.00000  -0.00000  -0.00000   0.00000   0.00024
  14  C     g 5      0.00000  -0.00000  -0.00000   0.00000   0.00000  -0.00000
  15  C     g 6      0.00000  -0.00621  -0.00000   0.00000  -0.00000  -0.00000
  16  C     g 7     -0.00000  -0.00000  -0.00000  -0.00000   0.00000   0.00000
  17  C     g 8     -0.00000   0.00035   0.00000  -0.00000   0.00000  -0.00000
  18  C     g 9     -0.00000   0.00000   0.00000  -0.00000   0.00000  -0.00000
  19  C     g 1     -0.00001  -0.00002   0.05153  -0.00000   0.00000  -0.00000
  20  C     g 2     -0.00276  -0.00000   0.00000   0.00000   0.00000   0.00764
  21  C     g 3     -0.00000   0.00000   0.00000   0.07236  -0.00108  -0.00000
  22  C     g 4      0.04523   0.00000   0.00001   0.00000   0.00000   0.00129
  23  C     g 5     -0.00000   0.00000   0.00000   0.00000  -0.00000   0.00000
  24  C     g 6     -0.00000   0.04523   0.00002  -0.00000  -0.00000   0.00000
  25  C     g 7      0.00000   0.00000   0.00000   0.00000  -0.00000  -0.00000
  26  C     g 8     -0.00000   0.00276  -0.00000   0.00000   0.00000   0.00000
  27  C     g 9      0.00000  -0.00000  -0.00000   0.00000  -0.00000   0.00000
  28  C     g 1      0.00003   0.00006  -0.14298   0.00000  -0.00000  -0.00000
  29  C     g 2     -0.03011  -0.00000  -0.00001  -0.00000  -0.00000   0.00968
  30  C     g 3      0.00000  -0.00000  -0.00000  -0.09299  -0.01411   0.00000
  31  C     g 4     -0.13914  -0.00000  -0.00003  -0.00000   0.00000  -0.03208
  32  C     g 5     -0.00000   0.00000   0.00000  -0.00000  -0.00000   0.00000
  33  C     g 6      0.00000  -0.13914  -0.00006   0.00001  -0.00000   0.00000
  34  C     g 7     -0.00000  -0.00000  -0.00000  -0.00000   0.00000   0.00000
  35  C     g 8     -0.00000   0.03011   0.00002  -0.00000  -0.00000   0.00000
  36  C     g 9     -0.00000   0.00000   0.00000  -0.00000  -0.00000   0.00000
  37  C     g 1     -0.00011  -0.00024   0.49818  -0.00000  -0.00000  -0.00000
  38  C     g 2     -0.13497  -0.00000  -0.00001   0.00001   0.00000   0.05569
  39  C     g 3     -0.00002   0.00003   0.00000   1.02747   0.02847  -0.00000
  40  C     g 4      0.26237   0.00000   0.00005   0.00001   0.00000  -0.03407
  41  C     g 5      0.00000  -0.00000   0.00000   0.00000   0.00000  -0.00001
  42  C     g 6     -0.00000   0.26237   0.00010  -0.00002  -0.00000   0.00000
  43  C     g 7      0.00001   0.00000   0.00000   0.00000  -0.00000  -0.00000
  44  C     g 8     -0.00000   0.13497   0.00002   0.00002   0.00000   0.00000
  45  C     g 9      0.00001  -0.00000  -0.00000   0.00000   0.00000  -0.00000
  46  H 1   g 1     -0.00195   0.00196  -0.02147  -0.00000   0.00000  -0.01917
  47  H 1   g 2     -0.00422   0.00560  -0.01294  -0.00604  -0.00232   0.00099
  48  H 1   g 3     -0.01110  -0.01110  -0.00001  -0.01212  -0.00371   0.00812
  49  H 1   g 4     -0.01697  -0.01156  -0.00031  -0.00272   0.02065  -0.00259
  50  H 1   g 5      0.01356   0.01356   0.00001   0.00169   0.01403  -0.00535
  51  H 1   g 6     -0.01156  -0.01697   0.00029  -0.00272   0.02065   0.01264
  52  H 1   g 7     -0.00954   0.00954  -0.01497  -0.00000   0.00000   0.00337
  53  H 1   g 8     -0.00559   0.00422  -0.01294   0.00604   0.00232  -0.01585
  54  H 1   g 9     -0.01179  -0.01179  -0.00001  -0.00693   0.00085  -0.01326
  55  H 1   g 1      0.00500  -0.00503   0.04622   0.00000  -0.00000   0.03251
  56  H 1   g 2      0.00996  -0.01425   0.02706   0.01511   0.00479  -0.00397
  57  H 1   g 3      0.02293   0.02293   0.00002   0.02347   0.00908  -0.01420
  58  H 1   g 4      0.03691   0.02317  -0.00002   0.00250  -0.03487   0.00662
  59  H 1   g 5     -0.02660  -0.02660  -0.00002  -0.00287  -0.02517   0.01068
  60  H 1   g 6      0.02317   0.03691   0.00006   0.00250  -0.03486  -0.02014
  61  H 1   g 7      0.01924  -0.01926   0.02918   0.00000  -0.00000  -0.00433
  62  H 1   g 8      0.01423  -0.00998   0.02706  -0.01511  -0.00479   0.02839
  63  H 1   g 9      0.02384   0.02384   0.00001   0.01045  -0.00315   0.02498
  64  H 1   g 1     -0.00045   0.00050  -0.07804  -0.00000   0.00000  -0.05454
  65  H 1   g 2     -0.02131   0.03005  -0.04642  -0.02419  -0.01042   0.01714
  66  H 1   g 3     -0.04475  -0.04476  -0.00003  -0.03618  -0.02330   0.02643
  67  H 1   g 4     -0.06830  -0.03445   0.00483  -0.01069   0.06453  -0.01863
  68  H 1   g 5      0.04527   0.04527   0.00003   0.01442   0.04528  -0.00386
  69  H 1   g 6     -0.03445  -0.06830  -0.00489  -0.01069   0.06453   0.03595
  70  H 1   g 7     -0.03665   0.03668  -0.05497  -0.00000   0.00000   0.02216
  71  H 1   g 8     -0.03003   0.02134  -0.04643   0.02419   0.01043  -0.05442
  72  H 1   g 9     -0.04631  -0.04631  -0.00003  -0.01000  -0.00992  -0.04288
  73  H 1   g 1      0.20428  -0.20436   0.13467   0.00001  -0.00000   0.25412
  74  H 1   g 2      0.03995   0.09028   0.12325   0.03073   0.03273  -0.02280
  75  H 1   g 3      0.02659   0.02659   0.00002   0.03724   0.04268  -0.11101
  76  H 1   g 4      0.12458   0.25546   0.16983   0.02941  -0.24220   0.02395
  77  H 1   g 5     -0.23250  -0.23250  -0.00015  -0.01059  -0.26482   0.16946
  78  H 1   g 6      0.25555   0.12468  -0.16959   0.02941  -0.24220  -0.11135
  79  H 1   g 7      0.18111  -0.18125   0.26444   0.00001  -0.00000  -0.02685
  80  H 1   g 8     -0.09036  -0.04003   0.12316  -0.03073  -0.03273   0.15408
  81  H 1   g 9      0.20630   0.20630   0.00013   0.06706  -0.13180   0.25999
  82  H 2   g 1      0.00195  -0.00194  -0.02147   0.00000  -0.00000   0.01917
  83  H 2   g 2     -0.00422   0.00559   0.01294   0.00604   0.00232   0.00099
  84  H 2   g 3      0.01110   0.01110   0.00001  -0.01212  -0.00371  -0.00812
  85  H 2   g 4     -0.01697  -0.01156   0.00029   0.00272  -0.02065  -0.00259
  86  H 2   g 5     -0.01356  -0.01356  -0.00001   0.00169   0.01403   0.00535
  87  H 2   g 6     -0.01156  -0.01697  -0.00031   0.00272  -0.02065   0.01264
  88  H 2   g 7      0.00954  -0.00953  -0.01498   0.00000  -0.00000  -0.00337
  89  H 2   g 8     -0.00560   0.00421   0.01294  -0.00604  -0.00232  -0.01585
  90  H 2   g 9      0.01179   0.01179   0.00001  -0.00693   0.00085   0.01326
  91  H 2   g 1     -0.00501   0.00499   0.04623  -0.00000   0.00000  -0.03251
  92  H 2   g 2      0.00997  -0.01423  -0.02707  -0.01511  -0.00479  -0.00397
  93  H 2   g 3     -0.02293  -0.02293  -0.00002   0.02347   0.00908   0.01420
  94  H 2   g 4      0.03691   0.02317   0.00006  -0.00250   0.03486   0.00662
  95  H 2   g 5      0.02660   0.02660   0.00002  -0.00287  -0.02517  -0.01068
  96  H 2   g 6      0.02317   0.03691  -0.00002  -0.00250   0.03487  -0.02014
  97  H 2   g 7     -0.01925   0.01924   0.02919  -0.00000   0.00000   0.00433
  98  H 2   g 8      0.01424  -0.00996  -0.02707   0.01511   0.00479   0.02839
  99  H 2   g 9     -0.02384  -0.02384  -0.00001   0.01045  -0.00315  -0.02498
 100  H 2   g 1      0.00048  -0.00044  -0.07804   0.00000  -0.00000   0.05454
 101  H 2   g 2     -0.02133   0.03002   0.04644   0.02419   0.01043   0.01714
 102  H 2   g 3      0.04476   0.04475   0.00003  -0.03619  -0.02330  -0.02643
 103  H 2   g 4     -0.06830  -0.03445  -0.00488   0.01069  -0.06453  -0.01863
 104  H 2   g 5     -0.04527  -0.04527  -0.00003   0.01442   0.04528   0.00386
 105  H 2   g 6     -0.03445  -0.06831   0.00482   0.01069  -0.06453   0.03595
 106  H 2   g 7      0.03667  -0.03664  -0.05498   0.00000  -0.00000  -0.02216
 107  H 2   g 8     -0.03004   0.02130   0.04644  -0.02419  -0.01043  -0.05442
 108  H 2   g 9      0.04631   0.04631   0.00003  -0.01000  -0.00992   0.04289
 109  H 2   g 1     -0.20433   0.20425   0.13476  -0.00001   0.00000  -0.25412
 110  H 2   g 2      0.04000   0.09038  -0.12315  -0.03073  -0.03274  -0.02280
 111  H 2   g 3     -0.02659  -0.02659  -0.00002   0.03724   0.04268   0.11101
 112  H 2   g 4      0.12464   0.25558  -0.16956  -0.02942   0.24220   0.02395
 113  H 2   g 5      0.23250   0.23250   0.00015  -0.01060  -0.26482  -0.16946
 114  H 2   g 6      0.25549   0.12455   0.16980  -0.02942   0.24220  -0.11134
 115  H 2   g 7     -0.18119   0.18105   0.26452  -0.00001   0.00000   0.02685
 116  H 2   g 8     -0.09031  -0.03992  -0.12324   0.03073   0.03273   0.15408
 117  H 2   g 9     -0.20630  -0.20629  -0.00013   0.06706  -0.13181  -0.25998
 118  H 3   g 1      0.00195   0.00196  -0.02147  -0.00000   0.00000   0.01917
 119  H 3   g 2     -0.00422  -0.00560   0.01293   0.00604   0.00232   0.00099
 120  H 3   g 3      0.01110  -0.01110  -0.00000  -0.01212  -0.00371  -0.00812
 121  H 3   g 4     -0.01697   0.01156   0.00030   0.00272  -0.02065  -0.00259
 122  H 3   g 5      0.01356  -0.01356  -0.00000  -0.00169  -0.01403  -0.00535
 123  H 3   g 6      0.01156  -0.01697   0.00029  -0.00272   0.02065  -0.01264
 124  H 3   g 7     -0.00954  -0.00954   0.01497   0.00000  -0.00000   0.00337
 125  H 3   g 8      0.00560   0.00422  -0.01293   0.00604   0.00232   0.01585
 126  H 3   g 9     -0.01179   0.01179   0.00000   0.00693  -0.00085  -0.01326
 127  H 3   g 1     -0.00501  -0.00503   0.04622   0.00000  -0.00000  -0.03251
 128  H 3   g 2      0.00997   0.01425  -0.02706  -0.01511  -0.00479  -0.00397
 129  H 3   g 3     -0.02293   0.02293   0.00001   0.02347   0.00908   0.01420
 130  H 3   g 4      0.03691  -0.02317   0.00004  -0.00250   0.03486   0.00662
 131  H 3   g 5     -0.02660   0.02660   0.00001   0.00287   0.02517   0.01068
 132  H 3   g 6     -0.02317   0.03691   0.00005   0.00250  -0.03486   0.02014
 133  H 3   g 7      0.01925   0.01926  -0.02917  -0.00000   0.00000  -0.00433
 134  H 3   g 8     -0.01424  -0.00998   0.02706  -0.01511  -0.00479  -0.02839
 135  H 3   g 9      0.02384  -0.02384  -0.00001  -0.01045   0.00315   0.02498
 136  H 3   g 1      0.00048   0.00050  -0.07803  -0.00000   0.00000   0.05454
 137  H 3   g 2     -0.02133  -0.03005   0.04641   0.02419   0.01042   0.01714
 138  H 3   g 3      0.04476  -0.04476  -0.00001  -0.03618  -0.02330  -0.02643
 139  H 3   g 4     -0.06830   0.03445  -0.00485   0.01069  -0.06453  -0.01863
 140  H 3   g 5      0.04527  -0.04527  -0.00001  -0.01441  -0.04528  -0.00386
 141  H 3   g 6      0.03445  -0.06830  -0.00488  -0.01068   0.06453  -0.03595
 142  H 3   g 7     -0.03667  -0.03668   0.05495   0.00000  -0.00000   0.02216
 143  H 3   g 8      0.03004   0.02134  -0.04641   0.02419   0.01042   0.05442
 144  H 3   g 9     -0.04631   0.04631   0.00001   0.01000   0.00992  -0.04288
 145  H 3   g 1     -0.20433  -0.20436   0.13459   0.00000  -0.00000  -0.25412
 146  H 3   g 2      0.04000  -0.09028  -0.12323  -0.03073  -0.03273  -0.02280
 147  H 3   g 3     -0.02659   0.02659   0.00001   0.03724   0.04268   0.11101
 148  H 3   g 4      0.12464  -0.25546  -0.16978  -0.02941   0.24219   0.02395
 149  H 3   g 5     -0.23250   0.23250   0.00005   0.01059   0.26482   0.16947
 150  H 3   g 6     -0.25549   0.12468  -0.16969   0.02941  -0.24220   0.11135
 151  H 3   g 7      0.18120   0.18125  -0.26436  -0.00000   0.00000  -0.02685
 152  H 3   g 8      0.09031  -0.04003   0.12320  -0.03073  -0.03273  -0.15408
 153  H 3   g 9      0.20630  -0.20630  -0.00005  -0.06706   0.13180   0.25999
 154  H 4   g 1     -0.00195  -0.00194  -0.02147   0.00000  -0.00000  -0.01917
 155  H 4   g 2     -0.00422  -0.00559  -0.01294  -0.00604  -0.00232   0.00099
 156  H 4   g 3     -0.01110   0.01110   0.00000  -0.01212  -0.00371   0.00812
 157  H 4   g 4     -0.01697   0.01156  -0.00030  -0.00272   0.02065  -0.00259
 158  H 4   g 5     -0.01356   0.01356   0.00000  -0.00169  -0.01403   0.00535
 159  H 4   g 6      0.01156  -0.01697  -0.00030   0.00272  -0.02065  -0.01264
 160  H 4   g 7      0.00954   0.00953   0.01498  -0.00000   0.00000  -0.00337
 161  H 4   g 8      0.00559   0.00421   0.01294  -0.00604  -0.00232   0.01585
 162  H 4   g 9      0.01179  -0.01179  -0.00000   0.00693  -0.00085   0.01326
 163  H 4   g 1      0.00500   0.00499   0.04623  -0.00000   0.00000   0.03251
 164  H 4   g 2      0.00996   0.01423   0.02707   0.01511   0.00479  -0.00397
 165  H 4   g 3      0.02293  -0.02293  -0.00001   0.02348   0.00908  -0.01420
 166  H 4   g 4      0.03691  -0.02317  -0.00004   0.00250  -0.03486   0.00662
 167  H 4   g 5      0.02660  -0.02660  -0.00001   0.00287   0.02517  -0.01068
 168  H 4   g 6     -0.02317   0.03691  -0.00003  -0.00250   0.03486   0.02014
 169  H 4   g 7     -0.01924  -0.01924  -0.02920   0.00000  -0.00000   0.00433
 170  H 4   g 8     -0.01423  -0.00996  -0.02707   0.01511   0.00479  -0.02839
 171  H 4   g 9     -0.02384   0.02384   0.00001  -0.01045   0.00315  -0.02498
 172  H 4   g 1     -0.00045  -0.00044  -0.07804   0.00000  -0.00000  -0.05454
 173  H 4   g 2     -0.02131  -0.03002  -0.04645  -0.02419  -0.01043   0.01714
 174  H 4   g 3     -0.04475   0.04475   0.00001  -0.03619  -0.02330   0.02643
 175  H 4   g 4     -0.06830   0.03445   0.00485  -0.01069   0.06453  -0.01863
 176  H 4   g 5     -0.04527   0.04527   0.00001  -0.01442  -0.04528   0.00386
 177  H 4   g 6      0.03445  -0.06831   0.00483   0.01069  -0.06453  -0.03595
 178  H 4   g 7      0.03665   0.03664   0.05500  -0.00000   0.00000  -0.02216
 179  H 4   g 8      0.03003   0.02130   0.04645  -0.02419  -0.01043   0.05442
 180  H 4   g 9      0.04631  -0.04631  -0.00001   0.01000   0.00992   0.04289
 181  H 4   g 1      0.20428   0.20425   0.13484  -0.00000   0.00000   0.25412
 182  H 4   g 2      0.03995  -0.09039   0.12317   0.03073   0.03274  -0.02280
 183  H 4   g 3      0.02659  -0.02659  -0.00001   0.03725   0.04269  -0.11101
 184  H 4   g 4      0.12458  -0.25558   0.16961   0.02942  -0.24220   0.02395
 185  H 4   g 5      0.23250  -0.23250  -0.00005   0.01060   0.26482  -0.16946
 186  H 4   g 6     -0.25555   0.12455   0.16970  -0.02942   0.24220   0.11135
 187  H 4   g 7     -0.18110  -0.18105  -0.26460   0.00000  -0.00000   0.02684
 188  H 4   g 8      0.09036  -0.03992  -0.12320   0.03073   0.03273  -0.15408
 189  H 4   g 9     -0.20629   0.20629   0.00005  -0.06707   0.13181  -0.25998
                        25        26        27        28        29        30
 eigenvalues:          0.409     0.549     0.549     0.549     0.572     0.578
   1  C     g 1     -0.00000  -0.00010  -0.00000   0.00000   0.00000  -0.00000
   2  C     g 2     -0.00000  -0.00000   0.00009   0.00000  -0.00000  -0.00024
   3  C     g 3      0.00000   0.00000   0.00000   0.00000   0.00025  -0.00000
   4  C     g 4      0.00000  -0.00000   0.00005   0.00000   0.00000   0.00009
   5  C     g 5     -0.00000  -0.00000   0.00000   0.00000   0.00000   0.00000
   6  C     g 6      0.00004  -0.00000   0.00000  -0.00005  -0.00000  -0.00000
   7  C     g 7     -0.00000   0.00000  -0.00000   0.00000   0.00000   0.00000
   8  C     g 8      0.00002   0.00000  -0.00000   0.00009  -0.00000  -0.00000
   9  C     g 9     -0.00000   0.00000  -0.00000  -0.00000  -0.00000  -0.00000
  10  C     g 1     -0.00000   0.00191   0.00000  -0.00000  -0.00000   0.00000
  11  C     g 2     -0.00000   0.00000  -0.00134  -0.00000   0.00000   0.00359
  12  C     g 3     -0.00000  -0.00000  -0.00000  -0.00000  -0.00387   0.00000
  13  C     g 4     -0.00000   0.00000  -0.00120  -0.00000  -0.00000  -0.00154
  14  C     g 5      0.00000   0.00000  -0.00000  -0.00000  -0.00000  -0.00000
  15  C     g 6      0.00024   0.00000  -0.00000   0.00120   0.00000   0.00000
  16  C     g 7      0.00000  -0.00000   0.00000  -0.00000  -0.00000   0.00000
  17  C     g 8      0.00298  -0.00000   0.00000  -0.00134   0.00000   0.00000
  18  C     g 9      0.00000  -0.00000   0.00000   0.00000   0.00000   0.00000
  19  C     g 1     -0.00000  -0.03169  -0.00000   0.00001   0.00000  -0.00000
  20  C     g 2      0.00000  -0.00000   0.01477   0.00000  -0.00000  -0.01304
  21  C     g 3      0.00000   0.00000   0.00000   0.00000   0.01428  -0.00000
  22  C     g 4      0.00000  -0.00000   0.02500   0.00000   0.00000   0.00770
  23  C     g 5     -0.00000  -0.00000   0.00000   0.00000  -0.00000   0.00000
  24  C     g 6      0.00129  -0.00000   0.00000  -0.02500  -0.00000  -0.00000
  25  C     g 7     -0.00000   0.00000  -0.00000   0.00000   0.00000   0.00000
  26  C     g 8     -0.00764   0.00000  -0.00000   0.01477  -0.00000  -0.00000
  27  C     g 9     -0.00000  -0.00000  -0.00000  -0.00000  -0.00000  -0.00000
  28  C     g 1     -0.00000   0.02751   0.00000  -0.00001  -0.00000   0.00000
  29  C     g 2      0.00000   0.00000  -0.02638  -0.00000   0.00000   0.13042
  30  C     g 3     -0.00000  -0.00000  -0.00000  -0.00000  -0.13585   0.00000
  31  C     g 4     -0.00000   0.00000  -0.00709  -0.00000  -0.00000  -0.05086
  32  C     g 5     -0.00000   0.00000  -0.00000  -0.00000   0.00000  -0.00000
  33  C     g 6     -0.03208   0.00000  -0.00000   0.00709   0.00000   0.00000
  34  C     g 7      0.00000  -0.00000   0.00000  -0.00000   0.00000   0.00000
  35  C     g 8     -0.00968  -0.00001   0.00000  -0.02638   0.00000   0.00000
  36  C     g 9     -0.00000  -0.00000   0.00000   0.00000   0.00000  -0.00000
  37  C     g 1     -0.00000   0.00730   0.00000  -0.00000   0.00000  -0.00000
  38  C     g 2      0.00000  -0.00001   0.07053   0.00000  -0.00000  -0.57428
  39  C     g 3      0.00000   0.00000   0.00000   0.00000   0.61679  -0.00000
  40  C     g 4     -0.00000   0.00001  -0.06712  -0.00000   0.00000   0.24357
  41  C     g 5      0.00000  -0.00000   0.00000   0.00000  -0.00000  -0.00000
  42  C     g 6     -0.03407   0.00001  -0.00000   0.06712  -0.00001  -0.00000
  43  C     g 7     -0.00000   0.00000  -0.00000   0.00000  -0.00000  -0.00000
  44  C     g 8     -0.05569   0.00001  -0.00000   0.07053  -0.00001  -0.00000
  45  C     g 9      0.00000   0.00000  -0.00000  -0.00000   0.00000  -0.00000
  46  H 1   g 1      0.01917   0.00089   0.02013   0.02013   0.00000   0.02463
  47  H 1   g 2      0.01585  -0.00605   0.00057  -0.01111  -0.00692  -0.01293
  48  H 1   g 3      0.00812   0.00000  -0.00145   0.00145   0.01346  -0.00047
  49  H 1   g 4      0.01264  -0.02250  -0.00080  -0.02337  -0.01977   0.00527
  50  H 1   g 5     -0.00535  -0.00000   0.01840  -0.01840   0.02974  -0.02681
  51  H 1   g 6     -0.00259   0.02249   0.02338   0.00080  -0.01977  -0.01751
  52  H 1   g 7     -0.00337   0.02795  -0.01378  -0.01379  -0.00000  -0.00186
  53  H 1   g 8     -0.00099  -0.00605  -0.01111   0.00058   0.00692   0.00608
  54  H 1   g 9     -0.01326   0.00000  -0.01476   0.01476   0.02405  -0.02675
  55  H 1   g 1     -0.03251  -0.00036  -0.03777  -0.03777  -0.00000  -0.04259
  56  H 1   g 2     -0.02839   0.01051  -0.00074   0.01983   0.02088   0.01802
  57  H 1   g 3     -0.01420  -0.00000   0.00459  -0.00459  -0.01863  -0.00888
  58  H 1   g 4     -0.02014   0.04211  -0.00020   0.04332   0.03059  -0.00776
  59  H 1   g 5      0.01068   0.00001  -0.03734   0.03734  -0.06438   0.05736
  60  H 1   g 6      0.00662  -0.04209  -0.04333   0.00021   0.03059   0.03321
  61  H 1   g 7      0.00433  -0.05599   0.02773   0.02774   0.00000   0.00255
  62  H 1   g 8      0.00397   0.01050   0.01983  -0.00074  -0.02088  -0.00080
  63  H 1   g 9      0.02498  -0.00001   0.02895  -0.02895  -0.05059   0.05757
  64  H 1   g 1      0.05454  -0.00975   0.05559   0.05559   0.00000   0.09443
  65  H 1   g 2      0.05442  -0.01668   0.00047  -0.03152  -0.03514   0.00914
  66  H 1   g 3      0.02643   0.00000  -0.00517   0.00517  -0.01041   0.00668
  67  H 1   g 4      0.03595  -0.06524   0.01221  -0.07007  -0.07457  -0.00093
  68  H 1   g 5     -0.00386  -0.00002   0.06291  -0.06291   0.12509  -0.07595
  69  H 1   g 6     -0.01863   0.06522   0.07008  -0.01223  -0.07458  -0.07497
  70  H 1   g 7     -0.02216   0.09974  -0.05301  -0.05304   0.00000   0.02771
  71  H 1   g 8     -0.01714  -0.01668  -0.03152   0.00047   0.03514   0.01789
  72  H 1   g 9     -0.04289   0.00001  -0.05054   0.05055   0.04979  -0.10514
  73  H 1   g 1     -0.25412   0.05872  -0.24247  -0.24248  -0.00001  -0.29101
  74  H 1   g 2     -0.15408   0.05315  -0.03502   0.14956   0.05545   0.17777
  75  H 1   g 3     -0.11101  -0.00001   0.02633  -0.02633  -0.19533   0.05050
  76  H 1   g 4     -0.11134   0.27771  -0.03480   0.27799   0.23794  -0.09034
  77  H 1   g 5      0.16947   0.00006  -0.24190   0.24190  -0.32138   0.18415
  78  H 1   g 6      0.02395  -0.27763  -0.27806   0.03487   0.23795   0.18742
  79  H 1   g 7      0.02685  -0.38962   0.19665   0.19675  -0.00000  -0.06803
  80  H 1   g 8      0.02280   0.05310   0.14957  -0.03503  -0.05545  -0.08872
  81  H 1   g 9      0.25998  -0.00006   0.22282  -0.22281  -0.13640   0.27170
  82  H 2   g 1     -0.01917   0.00089  -0.02013  -0.02013  -0.00000  -0.02463
  83  H 2   g 2      0.01585   0.00605   0.00057  -0.01112   0.00692  -0.01293
  84  H 2   g 3     -0.00812  -0.00000   0.00145  -0.00145   0.01346   0.00047
  85  H 2   g 4      0.01264   0.02249  -0.00080  -0.02338   0.01977   0.00527
  86  H 2   g 5      0.00535   0.00000  -0.01840   0.01840   0.02974   0.02681
  87  H 2   g 6     -0.00259  -0.02250   0.02338   0.00081   0.01977  -0.01751
  88  H 2   g 7      0.00337   0.02796   0.01379   0.01378   0.00000   0.00186
  89  H 2   g 8     -0.00099   0.00605  -0.01111   0.00057  -0.00692   0.00608
  90  H 2   g 9      0.01326  -0.00000   0.01476  -0.01476   0.02405   0.02675
  91  H 2   g 1      0.03251  -0.00035   0.03777   0.03777   0.00000   0.04259
  92  H 2   g 2     -0.02839  -0.01050  -0.00074   0.01983  -0.02088   0.01802
  93  H 2   g 3      0.01420   0.00000  -0.00459   0.00459  -0.01863   0.00888
  94  H 2   g 4     -0.02014  -0.04209  -0.00021   0.04334  -0.03059  -0.00776
  95  H 2   g 5     -0.01068  -0.00001   0.03734  -0.03734  -0.06438  -0.05736
  96  H 2   g 6      0.00662   0.04210  -0.04333   0.00020  -0.03059   0.03321
  97  H 2   g 7     -0.00433  -0.05600  -0.02774  -0.02772  -0.00000  -0.00255
  98  H 2   g 8      0.00397  -0.01051   0.01983  -0.00074   0.02088  -0.00080
  99  H 2   g 9     -0.02498   0.00001  -0.02895   0.02895  -0.05059  -0.05757
 100  H 2   g 1     -0.05454  -0.00976  -0.05559  -0.05559  -0.00000  -0.09443
 101  H 2   g 2      0.05442   0.01667   0.00047  -0.03152   0.03514   0.00913
 102  H 2   g 3     -0.02643  -0.00000   0.00517  -0.00517  -0.01041  -0.00668
[...]
    87   -4.179418574424e-02
    88    8.853681588074e-03
    89    3.816391611257e-02
    90   -8.759102588245e-02
    91    2.144613760362e-02
    92   -6.301618819135e-02
    93   -1.547979963376e-02
    94   -1.911913346421e-02
    95   -1.938613747070e-02
    96    4.446515431465e-02
    97   -5.731160547113e-03
    98   -2.536767555863e-02
    99    7.464609231467e-02
   100   -1.372003844438e-03
   101    7.759708953731e-03
   102    1.650824169851e-02
   103    1.208023722010e-03
   104    7.149715783836e-03
   105   -1.055715055069e-02
   106    6.198253478693e-03
   107    1.629565102571e-03
   108   -1.099173041817e-02
   109    4.517511234016e-03
   110   -3.090646795694e-03
   111   -3.843214690087e-02
   112   -4.039503791550e-03
   113    1.081551552789e-02
   114   -1.040552318267e-02
   115   -1.449009221121e-02
   116   -5.345511102081e-03
   117   -7.924095653775e-04
   118    3.228823708011e-02
   119   -7.787168009168e-02
   120    2.375467631806e-02
   121   -2.883175267757e-02
   122    1.165623245246e-02
   123    4.179424345774e-02
   124    8.853749917828e-03
   125   -3.816416637828e-02
   126   -8.759110711698e-02
   127   -2.144632784669e-02
   128    6.301622280697e-02
   129   -1.547986731274e-02
   130    1.911930777764e-02
   131   -1.938611578906e-02
   132   -4.446516929678e-02
   133   -5.731198346103e-03
   134    2.536788933756e-02
   135    7.464613322920e-02
   136    1.372062314920e-03
   137   -7.759708490869e-03
   138    1.650823163857e-02
   139   -1.208080993679e-03
   140    7.149703680278e-03
   141    1.055714092682e-02
   142    6.198251645472e-03
   143   -1.629638857116e-03
   144   -1.099172631909e-02
   145   -4.517590362154e-03
   146    3.090641699656e-03
   147   -3.843215137950e-02
   148    4.039583988896e-03
   149    1.081549677148e-02
   150    1.040550268945e-02
   151   -1.449009436291e-02
   152    5.345617355691e-03
   153   -7.924067922058e-04
   154   -3.228793314821e-02
   155   -7.787433627171e-02
   156    2.375190166886e-02
   157    2.882975831401e-02
   158   -1.165612030197e-02
   159    4.179476763314e-02
   160    8.853013916999e-03
   161    3.816393870862e-02
   162    8.759024328270e-02
   163    2.144610386405e-02
   164    6.301860638855e-02
   165   -1.547745747893e-02
   166   -1.911794469928e-02
   167    1.938605213803e-02
   168   -4.446534772302e-02
   169   -5.730838835979e-03
   170   -2.536768700722e-02
   171   -7.464558345755e-02
   172   -1.372014666615e-03
   173   -7.760113192575e-03
   174    1.650785160367e-02
   175    1.207947668569e-03
   176   -7.149689845495e-03
   177    1.055704343942e-02
   178    6.198319463296e-03
   179    1.629557232836e-03
   180    1.099118343370e-02
   181    4.517509557697e-03
   182    3.090507862529e-03
   183   -3.843229276036e-02
   184   -4.039252371283e-03
   185   -1.081555045611e-02
   186    1.040521249694e-02
   187   -1.448979032424e-02
   188   -5.345496920978e-03
   189    7.936860787021e-04
Sym=X
Ene= 24.135233
Spin=Alpha
Occup=0
     1    3.322466383347e-09
     2    3.417611049699e-05
     3    1.599345919514e-05
     4    6.204151783818e-10
     5   -7.893766677598e-09
     6   -1.532566017269e-05
     7    7.173582357471e-06
     8    7.743425868994e-09
     9    1.125308641998e+00
    10   -1.544117311934e-09
    11   -1.776492607077e-05
    12   -8.313512779103e-06
    13   -3.471687324078e-10
    14    3.719208543443e-09
    15    7.852597797949e-06
    16   -3.675562864694e-06
    17   -4.073824783164e-09
    18   -5.837058382437e-01
    19    1.118275488118e-09
    20    1.506267285066e-05
    21    7.048942280656e-06
    22    2.952900959911e-10
    23   -2.968750829855e-09
    24   -6.602851860896e-06
    25    3.090567964923e-06
    26    3.308568781074e-09
    27    4.943067150597e-01
    28   -7.441541585767e-10
    29   -1.099552845007e-05
    30   -5.145624847673e-06
    31   -2.169948555355e-10
    32    2.141782558724e-09
    33    4.812067133740e-06
    34   -2.252359133323e-06
    35   -2.368724920116e-09
    36   -3.607544069688e-01
    37    2.117254035343e-10
    38    2.848554091200e-06
    39    1.333059247792e-06
    40    6.753576970124e-11
    41   -4.166968491373e-10
    42   -1.203351041380e-06
    43    5.632255327198e-07
    44    7.214240333813e-10
    45    9.297750822644e-02
    46    1.504438037650e-06
    47   -8.590228054109e-02
    48    8.590718149980e-02
    49   -5.755401584321e-02
    50   -6.521221667376e-07
    51    2.010292633418e-02
    52    2.010545731478e-02
    53   -1.953530465578e-06
    54    2.535116751818e-02
    55   -1.012407674262e-06
    56    7.652533940780e-02
    57   -7.652914819480e-02
    58    3.820456962508e-02
    59    1.057187646987e-06
    60   -8.286443321284e-03
    61   -8.288902852495e-03
    62    1.276536586013e-06
    63   -1.650538416160e-02
    64    8.128466361306e-08
    65   -1.276499012859e-02
    66    1.276617331522e-02
    67   -2.426747125454e-03
    68   -3.818806189742e-07
    69   -2.787286105579e-03
    70   -2.786462048806e-03
    71   -6.511009154142e-08
    72    1.762323539226e-02
    73   -2.352281803642e-07
    74   -4.578355344142e-03
    75    4.576356826902e-03
    76    8.080069650133e-03
    77   -5.316185877530e-07
    78   -9.848203607147e-03
    79   -9.848454361852e-03
    80    2.594398853102e-07
    81   -4.106747776458e-02
    82   -1.505142890407e-06
    83    8.590620986957e-02
    84   -8.590130838947e-02
    85   -5.755500408489e-02
    86    6.505042175024e-07
    87   -2.010496522382e-02
    88   -2.010243277325e-02
    89    1.953964705591e-06
    90    2.535429068458e-02
    91    1.013143109784e-06
    92   -7.652828653935e-02
    93    7.652447751030e-02
    94    3.820523285124e-02
    95   -1.055757068531e-06
    96    8.288303897490e-03
    97    8.285843622613e-03
    98   -1.276945929085e-06
    99   -1.650803679072e-02
   100   -8.140283253190e-08
   101    1.276631905455e-02
   102   -1.276513589368e-02
   103   -2.426790439602e-03
   104    3.815527886689e-07
   105    2.786514495002e-03
   106    2.787338455456e-03
   107    6.539893629986e-08
   108    1.762362295594e-02
   109    2.350448027329e-07
   110    4.575735596092e-03
   111   -4.577734116145e-03
   112    8.080201008798e-03
   113    5.318705135095e-07
   114    9.848912050537e-03
   115    9.848661054999e-03
   116   -2.599949758126e-07
   117   -4.106745505113e-02
   118   -5.463119596629e-07
   119   -8.590469804314e-02
   120   -8.590647401418e-02
   121    5.755314676550e-02
   122   -2.359451774365e-07
   123    2.010416572875e-02
   124   -2.010508454005e-02
   125    7.080612682650e-07
   126    2.534842021307e-02
   127    3.676735692625e-07
   128    7.652731194060e-02
   129    7.652869194738e-02
   130   -3.820398638127e-02
   131    3.827071858503e-07
   132   -8.287753719563e-03
   133    8.288646468452e-03
   134   -4.628101638470e-07
   135   -1.650305075977e-02
   136   -2.945159801656e-08
   137   -1.276523918881e-02
   138   -1.276566787712e-02
   139    2.426709066890e-03
   140   -1.383402115180e-07
   141   -2.786977469814e-03
   142    2.786678611143e-03
   143    2.386283626374e-08
   144    1.762289446573e-02
   145    8.512582045585e-08
   146   -4.578264664668e-03
   147   -4.577540412561e-03
   148   -8.079954189855e-03
   149   -1.925839911259e-07
   150   -9.847880964248e-03
   151    9.847971906369e-03
   152   -9.450650262440e-08
   153   -4.106749773343e-02
   154    5.444724275156e-07
   155    8.590379250163e-02
   156    8.590201590436e-02
   157    5.755587349202e-02
   158    2.360408621408e-07
   159   -2.010372376168e-02
   160    2.010280761108e-02
   161   -7.079363843791e-07
   162    2.535703811431e-02
   163   -3.664439199858e-07
   164   -7.652631432507e-02
   165   -7.652493353549e-02
   166   -3.820581637570e-02
   167   -3.829131645355e-07
   168    8.286991871564e-03
   169   -8.286101650001e-03
   170    4.625419653670e-07
   171   -1.651037024625e-02
   172    2.948975669151e-08
   173    1.276607011541e-02
   174    1.276564121509e-02
   175    2.426828589072e-03
   176    1.382968728103e-07
   177    2.786823313218e-03
   178   -2.787121704046e-03
   179   -2.344918396858e-08
   180    1.762396387054e-02
   181   -8.528771052762e-08
   182    4.575826219490e-03
   183    4.576550564987e-03
   184   -8.080316596968e-03
   185    1.928296402194e-07
   186    9.849234504537e-03
   187   -9.849143669020e-03
   188    9.374241388247e-08
   189   -4.106743508488e-02
Sym=X
Ene= 24.196637
Spin=Alpha
Occup=0
     1   -3.185906490333e-08
     2    6.047937859573e-07
     3    1.293344851447e-06
     4    1.130672496325e+00
     5    1.307786353731e-09
     6    5.762712833259e-07
     7   -1.230438356753e-06
     8    3.210230199950e-08
     9   -6.385864954816e-10
    10    1.773241906838e-08
    11   -3.025685268325e-07
    12   -6.470647352409e-07
    13   -6.345182372305e-01
    14   -6.166889008741e-10
    15   -2.676409136436e-07
    16    5.714266503893e-07
    17   -1.815788664507e-08
    18    3.319732211104e-10
    19   -1.504183382021e-08
    20    2.499582866008e-07
    21    5.345694142157e-07
    22    5.415533815876e-01
    23    4.929727899779e-10
    24    2.119128465732e-07
    25   -4.524264799396e-07
    26    1.558155360341e-08
    27   -2.795092576207e-10
    28    1.103658990537e-08
    29   -1.813614051831e-07
    30   -3.878685349136e-07
    31   -3.987320243254e-01
    32   -3.558116182815e-10
    33   -1.525560811121e-07
    34    3.256987638309e-07
    35   -1.150438663401e-08
    36    2.033507082882e-10
    37   -3.432123737336e-09
    38    4.176312123789e-08
    39    8.933009748760e-08
    40    1.243204881506e-01
    41    6.983516699762e-11
    42    2.738285185994e-08
    43   -5.844614537011e-08
    44    3.595746828378e-09
    45   -5.204616224759e-11
    46    7.309629712767e-08
    47    3.148885786555e-02
    48   -3.148872923837e-02
    49    1.552197045388e-01
    50    4.793852033508e-08
    51   -7.873439364793e-04
    52   -7.873334094025e-04
    53    2.259570112120e-08
    54   -5.963009534969e-02
    55   -3.467051881383e-08
    56   -1.330022177870e-02
    57    1.330014318638e-02
    58   -1.338512609383e-01
    59   -5.910483849320e-08
    60    5.388745892516e-03
    61    5.388703104336e-03
    62    2.864375712312e-09
    63    2.885629626891e-02
    64   -1.217067712764e-08
    65   -2.799295271679e-03
    66    2.799316035093e-03
    67    4.402474933125e-02
    68    1.600439228943e-08
    69   -2.116564687227e-03
    70   -2.116553957214e-03
    71   -1.309484683781e-08
    72    3.709617761250e-03
    73    7.899638711150e-09
    74   -3.463463786451e-03
    75    3.463404192896e-03
    76   -5.887166766710e-02
    77   -8.590160865050e-09
    78   -6.697465693551e-03
    79   -6.697432171532e-03
    80    5.078734907211e-09
    81    1.749585722260e-03
    82   -8.089415346955e-08
    83   -3.148872249076e-02
    84    3.148885873441e-02
    85    1.552197559911e-01
    86   -4.641709834185e-08
    87    7.872593318788e-04
    88    7.872729205126e-04
    89   -1.290771488994e-08
    90   -5.963014966548e-02
    91    4.141342170888e-08
    92    1.330014438946e-02
    93   -1.330022694789e-02
    94   -1.338512912808e-01
    95    5.865773117024e-08
    96   -5.388629771829e-03
    97   -5.388673345987e-03
    98   -1.118326466924e-08
    99    2.885635002179e-02
   100    9.839631784571e-09
   101    2.799305339969e-03
   102   -2.799284922229e-03
   103    4.402475132537e-02
   104   -1.619383814949e-08
   105    2.116535327776e-03
   106    2.116545555267e-03
   107    1.573010354104e-08
   108    3.709606790189e-03
   109   -4.658922627100e-09
   110    3.463419730778e-03
   111   -3.463479321817e-03
   112   -5.887167910569e-02
   113    7.830368251831e-09
   114    6.697435843170e-03
   115    6.697468700881e-03
   116   -8.513020182015e-09
   117    1.749581836538e-03
   118    2.411978260824e-08
   119   -3.148881806724e-02
   120   -3.148877389406e-02
   121    1.552196592400e-01
   122   -1.771272034078e-08
   123    7.874039538084e-04
   124   -7.874009672193e-04
   125    1.126623522401e-08
   126    5.963004771598e-02
   127   -1.047434115416e-08
   128    1.330019314155e-02
   129    1.330016593884e-02
   130   -1.338512342182e-01
   131    2.143254945598e-08
   132   -5.388796363793e-03
   133    5.388780912823e-03
   134   -1.603372636549e-09
   135   -2.885624910972e-02
   136   -5.162195692043e-09
   137    2.799311095454e-03
   138    2.799318737147e-03
   139    4.402474757231e-02
   140   -5.698621524390e-09
   141    2.116577993924e-03
   142   -2.116573881225e-03
   143   -3.915147976734e-09
   144   -3.709627413690e-03
   145    3.888924714961e-09
   146    3.463431172697e-03
   147    3.463409554017e-03
   148   -5.887165759866e-02
   149    3.321164300201e-09
   150    6.697452155244e-03
   151   -6.697439793392e-03
   152    7.664820396944e-10
   153   -1.749589093661e-03
   154   -3.172215988288e-08
   155    3.148876201528e-02
   156    3.148881398256e-02
   157    1.552198011370e-01
   158    1.645050736330e-08
   159   -7.871993705820e-04
   160    7.872052113000e-04
   161   -1.531370826305e-09
   162    5.963019724228e-02
   163    1.712478835567e-08
   164   -1.330017278685e-02
   165   -1.330020411222e-02
   166   -1.338513178879e-01
   167   -2.119755914118e-08
   168    5.388579432097e-03
   169   -5.388595361031e-03
   170   -6.734600099413e-09
   171   -2.885639714365e-02
   172    2.810190586168e-09
   173   -2.799289554799e-03
   174   -2.799282231018e-03
   175    4.402475307022e-02
   176    5.953853716506e-09
   177   -2.116522073869e-03
   178    2.116525585780e-03
   179    6.529321631905e-09
   180   -3.709597178077e-03
   181   -6.534733547393e-10
   182   -3.463452348830e-03
   183   -3.463473980734e-03
   184   -5.887168915338e-02
   185   -2.646230411177e-09
   186   -6.697449415542e-03
   187    6.697461092441e-03
   188   -4.166575970764e-09
   189   -1.749578372428e-03
Sym=X
Ene= 24.199405
Spin=Alpha
Occup=0
     1   -7.142633735948e-01
     2   -4.095890000834e-07
     3    8.744678920767e-07
     4   -4.501012828759e-08
     5   -8.044810985901e-10
     6    6.187202377943e-07
     7    1.319533554494e-06
     8    8.765039483833e-01
     9   -3.887216442128e-09
    10    4.017332343363e-01
    11    2.203139815622e-07
    12   -4.703461068354e-07
    13    2.527052233034e-08
    14    3.791791040631e-10
    15   -3.034315082851e-07
    16   -6.471411885023e-07
    17   -4.913131165766e-01
    18    2.018171015090e-09
    19   -3.434555471052e-01
    20   -1.886141489915e-07
    21    4.026596307104e-07
    22   -2.157019914891e-08
    23   -3.025463661947e-10
    24    2.478886990149e-07
    25    5.286906074856e-07
    26    4.189143056216e-01
    27   -1.709133235741e-09
    28    2.530644823070e-01
    29    1.376059839786e-07
    30   -2.937639199706e-07
    31    1.588212438161e-08
    32    2.184325914047e-10
    33   -1.795067375721e-07
    34   -3.828476904736e-07
    35   -3.082272047465e-01
    36    1.247143179289e-09
    37   -7.892372082376e-02
    38   -3.736249251256e-08
    39    7.975449718657e-08
    40   -4.953782221586e-09
    41   -4.285001981063e-11
    42    3.898880879182e-08
    43    8.315846083937e-08
    44    9.603698878682e-02
    45   -3.213521182070e-10
    46   -1.007794431949e-01
    47   -4.569227780785e-02
    48   -4.569239493716e-02
    49   -3.996671529158e-08
    50    1.066412329862e-02
    51    2.497863571834e-02
    52   -2.497860002028e-02
    53    1.178564022258e-01
    54    1.584539299898e-07
    55    8.670537650267e-02
    56    2.303616680591e-02
    57    2.303628352978e-02
    58    3.359552612100e-08
    59    1.583575696921e-03
    60   -9.579745948923e-03
    61    9.579723363904e-03
    62   -1.017273461908e-01
    63   -1.271115297560e-07
    64   -2.815293596287e-02
    65    2.452511534508e-03
    66    2.452509992221e-03
    67   -5.526229767766e-09
    68   -3.609059430728e-03
    69   -2.618943093417e-03
    70    2.618961639663e-03
    71    3.377250324785e-02
    72    1.588195636968e-08
    73    3.740059809889e-02
    74   -1.409055724197e-04
    75   -1.409584740910e-04
    76    3.156290234762e-09
    77   -8.559103244934e-03
    78   -4.649700000539e-03
    79    4.649639396504e-03
    80   -4.544048598502e-02
    81   -1.038686930384e-09
    82   -1.007794721590e-01
    83    4.569245171077e-02
    84    4.569233074159e-02
    85    2.798831737746e-08
    86    1.066416492670e-02
    87   -2.497864044003e-02
    88    2.497867626059e-02
    89    1.178564811526e-01
    90   -1.538585499559e-07
    91    8.670540359762e-02
    92   -2.303632868630e-02
    93   -2.303621088932e-02
    94   -2.318112672931e-08
    95    1.583516678952e-03
    96    9.579756562752e-03
    97   -9.579778366822e-03
    98   -1.017273935006e-01
    99    1.249016151828e-07
   100   -2.815294500560e-02
   101   -2.452496313966e-03
   102   -2.452497237215e-03
   103    2.027968060692e-09
   104   -3.609040966983e-03
   105    2.618950416669e-03
   106   -2.618932257669e-03
   107    3.377250238812e-02
   108   -1.629021958439e-08
   109    3.740060878618e-02
   110    1.409375356961e-04
   111    1.408852503843e-04
   112    1.480903780951e-09
   113   -8.559088546683e-03
   114    4.649648488862e-03
   115   -4.649710294014e-03
   116   -4.544049266010e-02
   117    1.180872536555e-09
   118   -1.007794177458e-01
   119    4.569226801293e-02
   120   -4.569230797826e-02
   121   -1.870102621572e-08
   122   -1.066408663667e-02
   123   -2.497858874582e-02
   124   -2.497857564016e-02
   125    1.178563325769e-01
   126   -5.897627426212e-08
   127    8.670535264616e-02
   128   -2.303616539279e-02
   129    2.303620622206e-02
   130    1.575904220315e-08
   131   -1.583627720766e-03
   132    9.579710015825e-03
   133    9.579701529800e-03
   134   -1.017273044558e-01
   135    4.681507517191e-08
   136   -2.815292797118e-02
   137   -2.452523389428e-03
   138    2.452522813226e-03
   139   -3.136339769235e-09
   140    3.609075707519e-03
   141    2.618958687834e-03
   142    2.618965470703e-03
   143    3.377250402153e-02
   144   -5.739002620275e-09
   145    3.740058866857e-02
   146    1.409405705623e-04
   147   -1.409598478364e-04
   148    2.681773189342e-09
   149    8.559116232068e-03
   150    4.649671972229e-03
   151    4.649650296738e-03
   152   -4.544048011131e-02
   153    6.132853340298e-10
   154   -1.007794977136e-01
   155   -4.569246262771e-02
   156    4.569241645416e-02
   157    5.912058545318e-09
   158   -1.066420175153e-02
   159    2.497868775550e-02
   160    2.497870043841e-02
   161    1.178565507743e-01
   162    5.403117237449e-08
   163    8.670542748997e-02
   164    2.303633109603e-02
   165   -2.303628708660e-02
   166   -4.799929908558e-09
   167   -1.583464521992e-03
   168   -9.579792707262e-03
   169   -9.579800195262e-03
   170   -1.017274352277e-01
   171   -4.437814812913e-08
   172   -2.815295297687e-02
   173    2.452484296767e-03
   174   -2.452484602857e-03
   175   -4.009229366270e-10
   176    3.609024650122e-03
   177   -2.618934828098e-03
   178   -2.618928354593e-03
   179    3.377250162874e-02
   180    5.904342800042e-09
   181    3.740061821785e-02
   182   -1.409026079834e-04
   183    1.408838178495e-04
   184    2.068903401068e-09
   185    8.559075611312e-03
   186   -4.649676648685e-03
   187   -4.649699250912e-03
   188   -4.544049855500e-02
   189   -1.870986447733e-10

======= END OF MOLDEN-FORMATTED INPUT FILE =======


        *************************************************************
        *                                                           *
        *  Thank you very much for using Q-Chem.  Have a nice day.  *
        *                                                           *
        *************************************************************


0 sent ACK to 0 
now end server 0 ... 
