[Molden Format]
[Title]
 Molden file created by orca_2mkl for BaseName=/home/vladimir/git/molden2qmc/test/N4/ORCA/RHF/cc-pVDZ_QChem/./N4

[Atoms] AU
N    1   7         -1.2141710477         0.0000000000        -1.1929116595 
N    2   7          1.3902700165         0.8023365622        -0.5821231084 
N    3   7         -0.5808226514         0.8023365622         1.3773975481 
N    4   7          0.4047236826        -1.6046731244         0.3976372198 
[GTO]
  1 0
s   8 1.0 
     9046.0000000000         0.4625014943
     1357.0000000000         0.8582537942
      309.3000000000         1.4398036033
       87.7300000000         2.1073802907
       28.5600000000         2.4528112129
       10.2100000000         1.8249171308
        3.8380000000         0.5434603116
        0.7466000000         0.0088335638
s   8 1.0 
     9046.0000000000        -0.2016221615
     1357.0000000000        -0.3837127393
      309.3000000000        -0.6278575813
       87.7300000000        -0.9995645316
       28.5600000000        -1.1840306625
       10.2100000000        -1.2827591972
        3.8380000000        -0.4746144262
        0.7466000000         0.6264625369
s   1 1.0 
        0.2248000000         0.2326790717
p   3 1.0 
       13.5500000000         2.1828372526
        2.9170000000         1.7413495278
        0.7973000000         0.8086982955
p   1 1.0 
        0.2185000000         0.2129385976
d   1 1.0 
        0.8170000000         2.0015142317

  2 0
s   8 1.0 
     9046.0000000000         0.4625014943
     1357.0000000000         0.8582537942
      309.3000000000         1.4398036033
       87.7300000000         2.1073802907
       28.5600000000         2.4528112129
       10.2100000000         1.8249171308
        3.8380000000         0.5434603116
        0.7466000000         0.0088335638
s   8 1.0 
     9046.0000000000        -0.2016221615
     1357.0000000000        -0.3837127393
      309.3000000000        -0.6278575813
       87.7300000000        -0.9995645316
       28.5600000000        -1.1840306625
       10.2100000000        -1.2827591972
        3.8380000000        -0.4746144262
        0.7466000000         0.6264625369
s   1 1.0 
        0.2248000000         0.2326790717
p   3 1.0 
       13.5500000000         2.1828372526
        2.9170000000         1.7413495278
        0.7973000000         0.8086982955
p   1 1.0 
        0.2185000000         0.2129385976
d   1 1.0 
        0.8170000000         2.0015142317

  3 0
s   8 1.0 
     9046.0000000000         0.4625014943
     1357.0000000000         0.8582537942
      309.3000000000         1.4398036033
       87.7300000000         2.1073802907
       28.5600000000         2.4528112129
       10.2100000000         1.8249171308
        3.8380000000         0.5434603116
        0.7466000000         0.0088335638
s   8 1.0 
     9046.0000000000        -0.2016221615
     1357.0000000000        -0.3837127393
      309.3000000000        -0.6278575813
       87.7300000000        -0.9995645316
       28.5600000000        -1.1840306625
       10.2100000000        -1.2827591972
        3.8380000000        -0.4746144262
        0.7466000000         0.6264625369
s   1 1.0 
        0.2248000000         0.2326790717
p   3 1.0 
       13.5500000000         2.1828372526
        2.9170000000         1.7413495278
        0.7973000000         0.8086982955
p   1 1.0 
        0.2185000000         0.2129385976
d   1 1.0 
        0.8170000000         2.0015142317

  4 0
s   8 1.0 
     9046.0000000000         0.4625014943
     1357.0000000000         0.8582537942
      309.3000000000         1.4398036033
       87.7300000000         2.1073802907
       28.5600000000         2.4528112129
       10.2100000000         1.8249171308
        3.8380000000         0.5434603116
        0.7466000000         0.0088335638
s   8 1.0 
     9046.0000000000        -0.2016221615
     1357.0000000000        -0.3837127393
      309.3000000000        -0.6278575813
       87.7300000000        -0.9995645316
       28.5600000000        -1.1840306625
       10.2100000000        -1.2827591972
        3.8380000000        -0.4746144262
        0.7466000000         0.6264625369
s   1 1.0 
        0.2248000000         0.2326790717
p   3 1.0 
       13.5500000000         2.1828372526
        2.9170000000         1.7413495278
        0.7973000000         0.8086982955
p   1 1.0 
        0.2185000000         0.2129385976
d   1 1.0 
        0.8170000000         2.0015142317

[5D]
[9G]
[MO]
 Sym=     1a
 Ene= -1.57521396606759E+01
 Spin= Alpha
 Occup= 2.000000
  1       0.505742667935
  2       0.001213241731
  3      -0.001395773771
  4       0.001292509142
  5       0.000000341537
  6       0.001280021960
  7      -0.000878590484
  8       0.000001279103
  9      -0.000880396841
 10      -0.000077173576
 11      -0.000279475452
 12      -0.000002553540
 13      -0.000141909890
 14       0.000001880939
 15       0.506908085377
 16       0.001195252737
 17      -0.001362536951
 18      -0.001479055040
 19      -0.000856866644
 20       0.000623546208
 21       0.000986687415
 22       0.000578314785
 23      -0.000424889592
 24       0.000107711909
 25       0.000155193426
 26       0.000089462189
 27      -0.000121383162
 28      -0.000211706875
 29       0.493126089015
 30       0.001219170511
 31      -0.001354630620
 32       0.000607476147
 33      -0.000842604852
 34      -0.001454226596
 35      -0.000419252605
 36       0.000582661002
 37       0.001006860063
 38      -0.000163502922
 39       0.000156176743
 40      -0.000220354395
 41       0.000026457656
 42       0.000090612765
 43       0.497500997869
 44       0.001204377701
 45      -0.001341162470
 46      -0.000425395923
 47       0.001693586307
 48      -0.000422426422
 49       0.000285016399
 50      -0.001151921495
 51       0.000286952934
 52       0.000139279155
 53      -0.000032076022
 54       0.000128149784
 55       0.000232927297
 56       0.000124418667
 Sym=     1a
 Ene= -1.57512286637164E+01
 Spin= Alpha
 Occup= 2.000000
  1       0.619987513499
  2       0.000705360129
  3      -0.004238086267
  4       0.001125725477
  5      -0.000045356920
  6       0.001265143248
  7      -0.001556040690
  8      -0.000171845540
  9      -0.001000628052
 10      -0.000068936255
 11       0.000202442136
 12       0.000027878094
 13       0.000198396328
 14       0.000077703433
 15      -0.774888795574
 16      -0.000860425120
 17       0.005302648341
 18       0.001670344212
 19       0.001011590941
 20      -0.000782574100
 21      -0.001974747795
 22      -0.000983947184
 23       0.000559030715
 24       0.000134983075
 25       0.000088120717
 26       0.000042563485
 27      -0.000187234670
 28      -0.000211719119
 29       0.127177646361
 30       0.000151792425
 31      -0.000871394401
 32      -0.000017092943
 33      -0.000218165127
 34      -0.000307221322
 35      -0.000670038274
 36      -0.000036079255
 37       0.000203151594
 38      -0.000062105221
 39      -0.000247315802
 40      -0.000068847336
 41       0.000109529786
 42      -0.000050455640
 43       0.033255264932
 44       0.000038140879
 45      -0.000212790646
 46      -0.000166949835
 47       0.000048456889
 48      -0.000030595098
 49      -0.000557386272
 50      -0.000239649351
 51      -0.000013531924
 52      -0.000041883627
 53      -0.000111602660
 54      -0.000026338506
 55      -0.000115646140
 56       0.000228644343
 Sym=     1a
 Ene= -1.57512061071667E+01
 Spin= Alpha
 Occup= 2.000000
  1      -0.466763941883
  2      -0.000516225695
  3       0.003193089472
  4      -0.000925960637
  5      -0.000121504734
  6      -0.000874453542
  7       0.000863121815
  8      -0.000478242659
  9       0.001046585580
 10      -0.000087555856
 11      -0.000197938896
 12       0.000142113631
 13      -0.000013554016
 14       0.000167771861
 15      -0.338211919528
 16      -0.000364504911
 17       0.002307573235
 18       0.000826412496
 19       0.000340082046
 20      -0.000253778343
 21      -0.000471906862
 22      -0.000829798157
 23       0.000578650068
 24       0.000023314738
 25       0.000129219064
 26       0.000156640165
 27       0.000161359491
 28      -0.000138897699
 29       0.000694489137
 30       0.000000692638
 31       0.000024620776
 32       0.000033135697
 33      -0.000123774429
 34       0.000076229995
 35       0.000131655785
 36      -0.000478158213
 37       0.000319400597
 38       0.000207247909
 39       0.000011739770
 40      -0.000073842483
 41       0.000132956316
 42       0.000124941441
 43       0.818443450390
 44       0.000922406607
 45      -0.005565587127
 46      -0.000530566063
 47       0.002122439595
 48      -0.000475962530
 49       0.000558243730
 50      -0.002186074866
 51       0.000750033394
 52      -0.000113700751
 53       0.000067447841
 54      -0.000207787629
 55      -0.000214284713
 56      -0.000114452501
 Sym=     1a
 Ene= -1.57511897476415E+01
 Spin= Alpha
 Occup= 2.000000
  1       0.380010027594
  2       0.000412059045
  3      -0.002593442464
  4       0.000810024321
  5      -0.000075202849
  6       0.000659011287
  7      -0.000468950888
  8      -0.000308398502
  9      -0.001073381452
 10       0.000243005551
 11       0.000132105580
 12       0.000140476001
 13      -0.000007643910
 14       0.000069618655
 15       0.175005509697
 16       0.000184959594
 17      -0.001208696891
 18      -0.000379663402
 19      -0.000314911761
 20       0.000048995413
 21       0.000434825576
 22      -0.000128461023
 23      -0.000622664922
 24       0.000105452599
 25      -0.000233594594
 26      -0.000010452150
 27       0.000103892406
 28      -0.000063466808
 29      -0.862033821826
 30      -0.000984192991
 31       0.005858409709
 32      -0.000818873433
 33       0.001109372423
 34       0.001928484481
 35       0.000771053334
 36      -0.001205405651
 37      -0.002037582074
 38      -0.000198798035
 39       0.000129645058
 40      -0.000253971931
 41       0.000050048467
 42       0.000089697840
 43       0.289781662919
 44       0.000320511189
 45      -0.002004036593
 46      -0.000167988014
 47       0.000712914706
 48      -0.000320982224
 49       0.000273892445
 50      -0.000914376005
 51      -0.000338174067
 52      -0.000112603657
 53      -0.000074315583
 54       0.000177453598
 55      -0.000151304419
 56      -0.000111636163
 Sym=     1a
 Ene= -1.66476349259650E+00
 Spin= Alpha
 Occup= 2.000000
  1      -0.006548004697
  2       0.203861699331
  3       0.122148048827
  4       0.090836319612
  5       0.000012641222
  6       0.091349180245
  7       0.029201132882
  8      -0.000000387691
  9       0.029057297444
 10       0.006223325201
 11       0.021678041524
 12       0.000083095332
 13       0.010858462258
 14      -0.000079433659
 15      -0.006466798764
 16       0.202561834755
 17       0.120867199112
 18      -0.103868888686
 19      -0.060192610858
 20       0.044364829875
 21      -0.033008832613
 22      -0.019196352478
 23       0.014004531345
 24      -0.008101439935
 25      -0.012154913389
 26      -0.006994268641
 27       0.009463066514
 28       0.016472458772
 29      -0.006632781356
 30       0.205154305685
 31       0.123472984370
 32       0.043637381917
 33      -0.061261673951
 34      -0.105604280542
 35       0.014146196599
 36      -0.019654447293
 37      -0.033998314193
 38       0.012362665148
 39      -0.011927846000
 40       0.016762544211
 41      -0.002289056564
 42      -0.006968788570
 43      -0.006549050663
 44       0.203840928806
 45       0.122156615344
 46      -0.030759429669
 47       0.121441617676
 48      -0.029954253436
 49      -0.009709467380
 50       0.038845826942
 51      -0.009714032387
 52      -0.010551906549
 53       0.002407464607
 54      -0.009526974302
 55      -0.017993340198
 56      -0.009740600584
 Sym=     1a
 Ene= -1.04988249432009E+00
 Spin= Alpha
 Occup= 2.000000
  1      -0.000734386228
  2      -0.265710645415
  3      -0.335844978151
  4       0.089391297725
  5      -0.026866676581
  6      -0.098824573680
  7       0.004050013590
  8      -0.008392997664
  9      -0.055645725108
 10      -0.022513393650
 11      -0.001341549037
 12      -0.006290693326
 13       0.011193041147
 14      -0.000880076314
 15       0.000688655096
 16       0.284463853282
 17       0.359914364647
 18       0.066932005929
 19      -0.094123908796
 20       0.047956154663
 21      -0.008777450248
 22      -0.047319026817
 23       0.028081660284
 24       0.001755847514
 25      -0.004288088990
 26      -0.011163012482
 27      -0.019461345352
 28       0.007224763471
 29      -0.000456711416
 30      -0.156297909444
 31      -0.197581795951
 32       0.160217228009
 33       0.011775294427
 34       0.064491070194
 35       0.043925830060
 36       0.013300951426
 37       0.036848261151
 38      -0.017569611907
 39      -0.023146794345
 40      -0.008262279484
 41       0.008656890174
 42      -0.010455621338
 43       0.000322879330
 44       0.139514020663
 45       0.176841579993
 46       0.168693350967
 47       0.040968634100
 48      -0.018396289105
 49       0.049233003290
 50       0.030240595871
 51      -0.010121534594
 52      -0.001925072154
 53      -0.009719082893
 54      -0.006822578092
 55      -0.013102085857
 56       0.028408893441
 Sym=     1a
 Ene= -1.04645742907068E+00
 Spin= Alpha
 Occup= 2.000000
  1       0.000195931553
  2       0.074272578261
  3       0.094414712851
  4       0.001169986520
  5      -0.184746470827
  6       0.000455492167
  7       0.007086635812
  8      -0.059113522329
  9       0.007123344094
 10      -0.002254475056
 11       0.003030461997
 12      -0.024630597653
 13      -0.003698360581
 14      -0.024790475064
 15      -0.000526166036
 16      -0.202116511632
 17      -0.256670879515
 18       0.056994598657
 19      -0.135826364680
 20      -0.060907180689
 21       0.039540317420
 22      -0.031038416009
 23      -0.028535508652
 24      -0.008574873676
 25       0.014052865802
 26      -0.006453368822
 27      -0.020994811682
 28       0.013355599075
 29      -0.000542487887
 30      -0.201122077571
 31      -0.255852711677
 32      -0.060797433767
 33      -0.137137186364
 34       0.057814812466
 35      -0.028346527235
 36      -0.031543806887
 37       0.039894285640
 38      -0.013956472063
 39       0.014051039605
 40       0.013499032997
 41      -0.018163083255
 42      -0.006458897926
 43       0.000871203089
 44       0.328966852880
 45       0.418121915353
 46      -0.066024947164
 47      -0.027209395168
 48      -0.064453364801
 49      -0.031286903050
 50       0.031688650396
 51      -0.030657472269
 52       0.003816738643
 53       0.008491096250
 54      -0.010027688252
 55       0.006961180076
 56      -0.010303561879
 Sym=     1a
 Ene= -1.04308235084729E+00
 Spin= Alpha
 Occup= 2.000000
  1       0.000670671229
  2       0.264874091257
  3       0.338518544320
  4       0.095304073150
  5       0.024865638857
  6      -0.093095067344
  7       0.055326804224
  8       0.008158235293
  9      -0.005484855098
 10      -0.021219681533
 11       0.000754896960
 12       0.000669693269
 13       0.013808346796
 14       0.005995422845
 15       0.000376437218
 16       0.157985340977
 17       0.201862798207
 18      -0.061692206277
 19      -0.011761304740
 20      -0.158354328107
 21      -0.036794297458
 22      -0.013522286304
 23      -0.044016562010
 24      -0.016340512709
 25       0.022629116167
 26       0.010165571018
 27       0.010637447725
 28       0.008197514166
 29      -0.000820059462
 30      -0.284506427113
 31      -0.363231556456
 32      -0.047215162142
 33       0.093837106431
 34      -0.071171918370
 35      -0.027678850174
 36       0.047752216242
 37       0.007270647038
 38       0.018198519547
 39       0.004133274333
 40      -0.006922429270
 41       0.008281813728
 42       0.011147268619
 43      -0.000407639795
 44      -0.136371254821
 45      -0.173783109565
 46       0.018227412678
 47      -0.039457168621
 48      -0.171343701284
 49       0.010062245165
 50      -0.029364385819
 51      -0.051100892386
 52       0.010146549558
 53       0.009902386287
 54      -0.028692140941
 55       0.008080331609
 56       0.006830554534
 Sym=     1a
 Ene= -6.85760320116911E-01
 Spin= Alpha
 Occup= 2.000000
  1      -0.004276240876
  2       0.098174770885
  3       0.219202780072
  4      -0.203949934285
  5       0.000003617287
  6      -0.200385055575
  7      -0.107369445103
  8       0.000004713906
  9      -0.105050765783
 10      -0.008861827213
 11      -0.032446651304
 12       0.000095389439
 13      -0.016516963114
 14      -0.000094631375
 15      -0.004304843197
 16       0.098137195836
 17       0.219798239484
 18       0.231207383083
 19       0.133385569254
 20      -0.096784421885
 21       0.121003856155
 22       0.069926097759
 23      -0.050518648165
 24       0.012091606955
 25       0.017873867447
 26       0.010372977835
 27      -0.014303069642
 28      -0.024736752027
 29      -0.004247956688
 30       0.098188106470
 31       0.218522561215
 32      -0.098545214743
 33       0.136151772587
 34       0.233730815756
 35      -0.052107498197
 36       0.071691376375
 37       0.123279456141
 38      -0.018417217403
 39       0.018177879115
 40      -0.025015512790
 41       0.003529458241
 42       0.010527366223
 43      -0.004277134593
 44       0.098170808910
 45       0.219185007262
 46       0.068025330399
 47      -0.269528749618
 48       0.066779475761
 49       0.035528769671
 50      -0.141605605847
 51       0.035298898741
 52       0.015637674886
 53      -0.003607584249
 54       0.014309410912
 55       0.027024236750
 56       0.014540254131
 Sym=     1a
 Ene= -5.71334652461252E-01
 Spin= Alpha
 Occup= 2.000000
  1       0.006766138291
  2       0.122712740430
  3       0.152782202314
  4      -0.008124085957
  5       0.108868483444
  6      -0.277228896416
  7      -0.034103821771
  8       0.059875773442
  9      -0.181751879094
 10      -0.023552592873
 11      -0.004215995947
 12       0.013809471181
 13       0.005518260543
 14       0.005207675927
 15      -0.011622180960
 16      -0.208685395596
 17      -0.259048852109
 18      -0.244108120314
 19      -0.165211255842
 20       0.180394714647
 21      -0.191909775980
 22      -0.123677745113
 23       0.123362170767
 24       0.002021394768
 25      -0.009606050690
 26      -0.008177280124
 27       0.002070932249
 28       0.007379153979
 29       0.002196252159
 30       0.040408001853
 31       0.050565785657
 32       0.203997790998
 33       0.168491096027
 34       0.069135402825
 35       0.107316645072
 36       0.099333497012
 37       0.048899715399
 38      -0.001398952400
 39      -0.016731241341
 40      -0.017530851138
 41       0.018524157344
 42      -0.013726710224
 43       0.002414564498
 44       0.044420239659
 45       0.055691559665
 46       0.264758699516
 47      -0.007587926542
 48       0.002224511177
 49       0.148189837342
 50      -0.018144875759
 51       0.004562550237
 52       0.006663483126
 53      -0.000920025583
 54       0.000512600625
 55      -0.015929311345
 56       0.027764657790
 Sym=     1a
 Ene= -5.70198684473518E-01
 Spin= Alpha
 Occup= 2.000000
  1      -0.007273242138
  2      -0.130434651430
  3      -0.161606288627
  4       0.147851242429
  5       0.212906770022
  6       0.151771307438
  7       0.113082035178
  8       0.117196363384
  9       0.114854106762
 10      -0.001254889622
 11       0.009909883895
 12       0.018826980302
 13      -0.002157242095
 14       0.017801220198
 15      -0.002265884334
 16      -0.040756572413
 17      -0.050660595608
 18      -0.197977568081
 19       0.152604961599
 20      -0.073885805834
 21      -0.119458193811
 22       0.076886619546
 23      -0.036018347009
 24      -0.014862753510
 25      -0.000307500598
 26       0.011294515516
 27       0.023301326990
 28      -0.012818250385
 29      -0.001913257716
 30      -0.034217193566
 31      -0.042237524444
 32      -0.081671522287
 33       0.170096306352
 34      -0.204261576259
 35      -0.040886922586
 36       0.088537335557
 37      -0.122712561665
 38       0.029002690378
 39       0.000320886154
 40      -0.013225046805
 41       0.000311023641
 42       0.011665621261
 43       0.011462014820
 44       0.205414694798
 45       0.254427242652
 46       0.033880871934
 47      -0.341372416733
 48       0.015704243604
 49       0.035966518044
 50      -0.254051667748
 51       0.024494103906
 52       0.007782176762
 53      -0.000638826355
 54      -0.002569686572
 55       0.013119292419
 56      -0.000590550041
 Sym=     1a
 Ene= -5.69000285424464E-01
 Spin= Alpha
 Occup= 2.000000
  1       0.006789838094
  2       0.120220367639
  3       0.148093658864
  4      -0.268740702306
  5       0.119168389162
  6      -0.003927151612
  7      -0.177453318784
  8       0.065621155214
  9      -0.031266449597
 10       0.016480327531
 11      -0.003777741303
 12       0.005462615072
 13      -0.017024738654
 14       0.014775583918
 15       0.002324931786
 16       0.040654116289
 17       0.049858702995
 18       0.065417022887
 19       0.168798585681
 20       0.196148697485
 21       0.047705305800
 22       0.099324091032
 23       0.103421820701
 24       0.016368348489
 25      -0.015824234904
 26      -0.013509519242
 27       0.008371642062
 28      -0.017566425110
 29      -0.011649324524
 30      -0.208344072364
 31      -0.257451824221
 32       0.172691673215
 33      -0.168557357451
 34      -0.247136057604
 35       0.119661104989
 36      -0.127213405515
 37      -0.194430887137
 38       0.000978744377
 39      -0.008776216917
 40       0.007147926182
 41       0.002299578006
 42      -0.008240050044
 43       0.002778914564
 44       0.048604311009
 45       0.059493347470
 46       0.006526855644
 47      -0.015180555174
 48       0.276489106112
 49       0.007798344389
 50      -0.024409794795
 51       0.157124062096
 52      -0.016798285352
 53      -0.001880076148
 54       0.028540374594
 55      -0.002002861455
 56       0.000670607515
 Sym=     1a
 Ene= -5.36730983552771E-01
 Spin= Alpha
 Occup= 2.000000
  1       0.000398900105
  2       0.003273922880
  3       0.002207723835
  4      -0.163539658051
  5       0.229225357714
  6       0.159348455358
  7      -0.110549441296
  8       0.153748096707
  9       0.106021475283
 10       0.024142810947
 11      -0.008201394394
 12       0.025457455670
 13       0.002175421355
 14       0.002677014226
 15      -0.000022173209
 16      -0.001664706610
 17      -0.002607579097
 18       0.151335089535
 19      -0.295567910561
 20      -0.036231029841
 21       0.101108302635
 22      -0.198024997367
 23      -0.024156006184
 24      -0.016581430835
 25       0.007334430239
 26      -0.019872855429
 27      -0.025078012654
 28       0.003276723105
 29       0.000284741859
 30       0.001919245767
 31       0.000866947986
 32      -0.301244849361
 33      -0.022474500281
 34      -0.110530051884
 35      -0.202678337319
 36      -0.014712361490
 37      -0.073603681913
 38       0.016818212203
 39       0.030602313011
 40       0.008586512364
 41       0.002672788101
 42      -0.002588625903
 43      -0.000142295526
 44      -0.003131201268
 45      -0.004079449902
 46       0.320981001015
 47       0.084287288980
 48      -0.011171874616
 49       0.215127882331
 50       0.057191222491
 51      -0.007652336324
 52      -0.011862783456
 53      -0.021627819923
 54      -0.009778683097
 55      -0.004487031195
 56       0.025186271875
 Sym=     1a
 Ene= -5.31468474791287E-01
 Spin= Alpha
 Occup= 2.000000
  1       0.000378685979
  2       0.002876783553
  3       0.001710347844
  4      -0.167703951143
  5      -0.233942618186
  6       0.164615358021
  7      -0.114458398087
  8      -0.158554026749
  9       0.110770564143
 10       0.010613641428
 11       0.007975595788
 12      -0.002877741288
 13      -0.022298318566
 14      -0.025754505738
 15       0.000275430636
 16       0.001727256643
 17       0.000639710523
 18       0.121537797330
 19       0.019197303476
 20       0.309954817039
 21       0.082873856160
 22       0.013310507970
 23       0.209435172011
 24       0.007332703988
 25      -0.030564434391
 26       0.001816410116
 27      -0.016868382533
 28      -0.008539716672
 29      -0.000012668008
 30      -0.001541609657
 31      -0.002481208746
 32       0.039587246822
 33       0.281819909683
 34      -0.151195919078
 35       0.026967896824
 36       0.191101989996
 37      -0.102752642206
 38       0.011966290832
 39      -0.007116274519
 40      -0.002098354738
 41       0.026885573896
 42       0.019468784559
 43      -0.000111921210
 44      -0.002610392945
 45      -0.003455899479
 46       0.007721246144
 47      -0.071271950390
 48      -0.316050019086
 49       0.005091317306
 50      -0.047737583753
 51      -0.214196287153
 52      -0.003285304236
 53       0.021493233134
 54      -0.024174284738
 55       0.012301731850
 56       0.009702106760
 Sym=     1a
 Ene= 1.94915895364608E-01
 Spin= Alpha
 Occup= 0.000000
  1       0.000666569399
  2      -0.006383440884
  3      -0.038370226406
  4      -0.233992788279
  5      -0.305286773798
  6       0.213993861754
  7      -0.351046135736
  8      -0.447571792155
  9       0.306036426441
 10      -0.000890726469
 11      -0.005009592528
 12      -0.002784256675
 13       0.008208387246
 14       0.009431073782
 15      -0.000598631955
 16       0.005280266518
 17       0.032647325345
 18      -0.210269879726
 19       0.067606045540
 20      -0.365844341552
 21      -0.316310756793
 22       0.094122752492
 23      -0.534462350486
 24      -0.003034071773
 25      -0.010380053042
 26       0.001758296988
 27      -0.007535003361
 28      -0.002774437564
 29      -0.000111997654
 30       0.001139706608
 31       0.006737974881
 32       0.162653910670
 33       0.126921182133
 34      -0.008925410163
 35       0.229698866004
 36       0.181769087443
 37      -0.016670119369
 38       0.000983299233
 39       0.003300551098
 40       0.000138209211
 41      -0.001388813357
 42      -0.003761731805
 43       0.000036916425
 44      -0.000067768144
 45      -0.001040192807
 46       0.250392684675
 47       0.099094141159
 48       0.147750925761
 49       0.357325481559
 50       0.141308056450
 51       0.212058317243
 52       0.001732523164
 53       0.008131768406
 54       0.000476799612
 55       0.000525285460
 56      -0.001274843553
 Sym=     1a
 Ene= 1.96955642140926E-01
 Spin= Alpha
 Occup= 0.000000
  1      -0.000122602639
  2       0.001149855473
  3       0.006982569039
  4       0.041357808494
  5      -0.010492937564
  6      -0.037744188740
  7       0.061939110594
  8      -0.013690669913
  9      -0.053751703300
 10       0.000537286504
 11       0.000417718627
 12       0.001125813066
 13      -0.000729280461
 14      -0.000962929529
 15       0.000162104282
 16      -0.000719166248
 17      -0.006143663173
 18       0.162966739903
 19      -0.350472329104
 20      -0.103191147633
 21       0.240013475752
 22      -0.510647600428
 23      -0.150133960062
 24       0.006970874851
 25      -0.002805514583
 26       0.007630395554
 27       0.004740693943
 28       0.001698687337
 29       0.000166549731
 30      -0.000728354888
 31      -0.006318922078
 32       0.095901101603
 33       0.360185602973
 34      -0.165324692083
 35       0.141168021851
 36       0.529339065239
 37      -0.240348238194
 38      -0.000485087730
 39       0.003005314349
 40      -0.002302066629
 41      -0.008951697534
 42      -0.008181111317
 43      -0.000206127798
 44       0.000297280020
 45       0.005479735779
 46      -0.296251329296
 47       0.005788291844
 48       0.310244692831
 49      -0.432949563750
 50       0.010899592248
 51       0.454603085426
 52      -0.007358379318
 53       0.000543501858
 54      -0.007099294376
 55       0.004392751182
 56       0.006814126851
 Sym=     1a
 Ene= 1.98768967230452E-01
 Spin= Alpha
 Occup= 0.000000
  1       0.000677706671
  2      -0.006245267559
  3      -0.038257224265
  4      -0.220794267849
  5       0.314985148252
  6       0.201124921451
  7      -0.330458857197
  8       0.460037312793
  9       0.285633311336
 10      -0.007537997678
 11       0.003244117362
 12      -0.008653539287
 13      -0.004387361130
 14       0.002168786572
 15      -0.000114241201
 16       0.001416006560
 17       0.007805850799
 18       0.014151993176
 19      -0.144773171358
 20      -0.156438826367
 21       0.016984344183
 22      -0.215707634879
 23      -0.236659033667
 24       0.002892017463
 25      -0.005142773124
 26       0.004551348851
 27      -0.000186962738
 28       0.000022038038
 29      -0.000581673308
 30       0.004870367444
 31       0.031037612347
 32       0.366710906659
 33      -0.073860965560
 34       0.180770950585
 35       0.536930032436
 36      -0.112779755484
 37       0.255901353931
 38       0.004884248336
 39       0.008332595248
 40       0.003326337526
 41       0.005988945477
 42      -0.002377123664
 43       0.000024762142
 44      -0.000012404216
 45      -0.000565244537
 46      -0.174140675401
 47      -0.107406239055
 48      -0.254552451937
 49      -0.259322669186
 50      -0.160687195808
 51      -0.381107252844
 52       0.000102718495
 53      -0.010252639205
 54       0.002246927889
 55      -0.002537905124
 56      -0.000151272754
 Sym=     1a
 Ene= 2.72995535404761E-01
 Spin= Alpha
 Occup= 0.000000
  1       0.021261041800
  2      -0.144384199889
  3      -1.091512320682
  4      -0.256176050993
  5      -0.007286019594
  6      -0.154790674252
  7      -0.820930708318
  8      -0.044354518510
  9      -0.341160194152
 10      -0.017020847605
 11      -0.020636163081
 12      -0.005765400922
 13      -0.001513095990
 14       0.008662608643
 15      -0.027036447951
 16       0.180861151566
 17       1.374558455142
 18      -0.327100301837