[Molden Format]
[Atoms] (Angs)
  N      1    7      0.52000000      0.53000000      0.51000000
  N      2    7     -0.52000000     -0.52000000      0.52000000
  N      3    7     -0.52000000      0.52000000     -0.52000000
  N      4    7      0.52000000     -0.52000000     -0.52000000
[GTO]
1    0
S    9    1.000000
   4.58400000E+04    9.20000000E-05 
   6.86800000E+03    7.17000000E-04 
   1.56300000E+03    3.74900000E-03 
   4.42400000E+02    1.55320000E-02 
   1.44300000E+02    5.31460000E-02 
   5.21800000E+01    1.46787000E-01 
   2.03400000E+01    3.04663000E-01 
   8.38100000E+00    3.97684000E-01 
   3.52900000E+00    2.17641000E-01 
S    9    1.000000
   4.58400000E+04   -2.00000000E-05 
   6.86800000E+03   -1.59000000E-04 
   1.56300000E+03   -8.24000000E-04 
   4.42400000E+02   -3.47800000E-03 
   1.44300000E+02   -1.19660000E-02 
   5.21800000E+01   -3.53880000E-02 
   2.03400000E+01   -8.00770000E-02 
   8.38100000E+00   -1.46722000E-01 
   3.52900000E+00   -1.16360000E-01 
S    1    1.000000
   1.05400000E+00    1.00000000E+00 
S    1    1.000000
   4.11800000E-01    1.00000000E+00 
S    1    1.000000
   1.55200000E-01    1.00000000E+00 
P    3    1.000000
   4.93300000E+01    5.53300000E-03 
   1.13700000E+01    3.79620000E-02 
   3.43500000E+00    1.49028000E-01 
P    1    1.000000
   1.18200000E+00    1.00000000E+00 
P    1    1.000000
   4.17300000E-01    1.00000000E+00 
P    1    1.000000
   1.42800000E-01    1.00000000E+00 
D    1    1.000000
   2.83700000E+00    1.00000000E+00 
D    1    1.000000
   9.68000000E-01    1.00000000E+00 
D    1    1.000000
   3.35000000E-01    1.00000000E+00 
F    1    1.000000
   2.02700000E+00    1.00000000E+00 
F    1    1.000000
   6.85000000E-01    1.00000000E+00 
G    1    1.000000
   1.42700000E+00    1.00000000E+00 

2    0
S    9    1.000000
   4.58400000E+04    9.20000000E-05 
   6.86800000E+03    7.17000000E-04 
   1.56300000E+03    3.74900000E-03 
   4.42400000E+02    1.55320000E-02 
   1.44300000E+02    5.31460000E-02 
   5.21800000E+01    1.46787000E-01 
   2.03400000E+01    3.04663000E-01 
   8.38100000E+00    3.97684000E-01 
   3.52900000E+00    2.17641000E-01 
S    9    1.000000
   4.58400000E+04   -2.00000000E-05 
   6.86800000E+03   -1.59000000E-04 
   1.56300000E+03   -8.24000000E-04 
   4.42400000E+02   -3.47800000E-03 
   1.44300000E+02   -1.19660000E-02 
   5.21800000E+01   -3.53880000E-02 
   2.03400000E+01   -8.00770000E-02 
   8.38100000E+00   -1.46722000E-01 
   3.52900000E+00   -1.16360000E-01 
S    1    1.000000
   1.05400000E+00    1.00000000E+00 
S    1    1.000000
   4.11800000E-01    1.00000000E+00 
S    1    1.000000
   1.55200000E-01    1.00000000E+00 
P    3    1.000000
   4.93300000E+01    5.53300000E-03 
   1.13700000E+01    3.79620000E-02 
   3.43500000E+00    1.49028000E-01 
P    1    1.000000
   1.18200000E+00    1.00000000E+00 
P    1    1.000000
   4.17300000E-01    1.00000000E+00 
P    1    1.000000
   1.42800000E-01    1.00000000E+00 
D    1    1.000000
   2.83700000E+00    1.00000000E+00 
D    1    1.000000
   9.68000000E-01    1.00000000E+00 
D    1    1.000000
   3.35000000E-01    1.00000000E+00 
F    1    1.000000
   2.02700000E+00    1.00000000E+00 
F    1    1.000000
   6.85000000E-01    1.00000000E+00 
G    1    1.000000
   1.42700000E+00    1.00000000E+00 

3    0
S    9    1.000000
   4.58400000E+04    9.20000000E-05 
   6.86800000E+03    7.17000000E-04 
   1.56300000E+03    3.74900000E-03 
   4.42400000E+02    1.55320000E-02 
   1.44300000E+02    5.31460000E-02 
   5.21800000E+01    1.46787000E-01 
   2.03400000E+01    3.04663000E-01 
   8.38100000E+00    3.97684000E-01 
   3.52900000E+00    2.17641000E-01 
S    9    1.000000
   4.58400000E+04   -2.00000000E-05 
   6.86800000E+03   -1.59000000E-04 
   1.56300000E+03   -8.24000000E-04 
   4.42400000E+02   -3.47800000E-03 
   1.44300000E+02   -1.19660000E-02 
   5.21800000E+01   -3.53880000E-02 
   2.03400000E+01   -8.00770000E-02 
   8.38100000E+00   -1.46722000E-01 
   3.52900000E+00   -1.16360000E-01 
S    1    1.000000
   1.05400000E+00    1.00000000E+00 
S    1    1.000000
   4.11800000E-01    1.00000000E+00 
S    1    1.000000
   1.55200000E-01    1.00000000E+00 
P    3    1.000000
   4.93300000E+01    5.53300000E-03 
   1.13700000E+01    3.79620000E-02 
   3.43500000E+00    1.49028000E-01 
P    1    1.000000
   1.18200000E+00    1.00000000E+00 
P    1    1.000000
   4.17300000E-01    1.00000000E+00 
P    1    1.000000
   1.42800000E-01    1.00000000E+00 
D    1    1.000000
   2.83700000E+00    1.00000000E+00 
D    1    1.000000
   9.68000000E-01    1.00000000E+00 
D    1    1.000000
   3.35000000E-01    1.00000000E+00 
F    1    1.000000
   2.02700000E+00    1.00000000E+00 
F    1    1.000000
   6.85000000E-01    1.00000000E+00 
G    1    1.000000
   1.42700000E+00    1.00000000E+00 

4    0
S    9    1.000000
   4.58400000E+04    9.20000000E-05 
   6.86800000E+03    7.17000000E-04 
   1.56300000E+03    3.74900000E-03 
   4.42400000E+02    1.55320000E-02 
   1.44300000E+02    5.31460000E-02 
   5.21800000E+01    1.46787000E-01 
   2.03400000E+01    3.04663000E-01 
   8.38100000E+00    3.97684000E-01 
   3.52900000E+00    2.17641000E-01 
S    9    1.000000
   4.58400000E+04   -2.00000000E-05 
   6.86800000E+03   -1.59000000E-04 
   1.56300000E+03   -8.24000000E-04 
   4.42400000E+02   -3.47800000E-03 
   1.44300000E+02   -1.19660000E-02 
   5.21800000E+01   -3.53880000E-02 
   2.03400000E+01   -8.00770000E-02 
   8.38100000E+00   -1.46722000E-01 
   3.52900000E+00   -1.16360000E-01 
S    1    1.000000
   1.05400000E+00    1.00000000E+00 
S    1    1.000000
   4.11800000E-01    1.00000000E+00 
S    1    1.000000
   1.55200000E-01    1.00000000E+00 
P    3    1.000000
   4.93300000E+01    5.53300000E-03 
   1.13700000E+01    3.79620000E-02 
   3.43500000E+00    1.49028000E-01 
P    1    1.000000
   1.18200000E+00    1.00000000E+00 
P    1    1.000000
   4.17300000E-01    1.00000000E+00 
P    1    1.000000
   1.42800000E-01    1.00000000E+00 
D    1    1.000000
   2.83700000E+00    1.00000000E+00 
D    1    1.000000
   9.68000000E-01    1.00000000E+00 
D    1    1.000000
   3.35000000E-01    1.00000000E+00 
F    1    1.000000
   2.02700000E+00    1.00000000E+00 
F    1    1.000000
   6.85000000E-01    1.00000000E+00 
G    1    1.000000
   1.42700000E+00    1.00000000E+00 

[MO]
Sym=X
Ene= -15.748659
Spin=Alpha
Occup=1
     1    5.001587050127e-01
     2    4.214684851795e-04
     3    8.517347503336e-03
     4   -1.866887255959e-03
     5    7.283163507886e-04
     6   -9.032317492954e-04
     7   -9.086918316762e-04
     8   -8.973468852542e-04
     9    2.293776420147e-04
    10    2.332282551703e-04
    11    2.259319125033e-04
    12   -1.614022777485e-04
    13   -1.605597072291e-04
    14   -1.624404036842e-04
    15   -1.851879100767e-04
    16   -1.943915730840e-04
    17   -1.781303070774e-04
    18   -7.147862019762e-07
    19    4.473743115184e-05
    20    4.477205795659e-05
    21   -3.600553701510e-07
    22    4.490797099107e-05
    23    3.181931819565e-06
    24   -5.039230343508e-05
    25   -5.349510248771e-05
    26    1.790038215390e-06
    27   -5.656295605267e-05
    28   -8.174967411151e-07
    29    1.623653536173e-04
    30    1.596952444779e-04
    31   -4.435838564230e-07
    32    1.575658070824e-04
    33   -9.565256907314e-06
    34    6.198742070764e-06
    35    5.995241397942e-06
    36    2.721594636560e-07
    37    2.357818643598e-05
    38   -7.308086847065e-06
    39    7.488469259068e-06
    40    3.652239598332e-05
    41   -2.464969170662e-05
    42   -2.192152856367e-05
    43   -2.143091480350e-06
    44    3.514895532380e-05
    45    2.520848975044e-05
    46   -2.517796354427e-05
    47   -1.060211133565e-05
    48    5.717967054507e-06
    49    5.309470685929e-06
    50    1.075477324669e-06
    51   -1.426636970081e-05
    52    1.530116461425e-05
    53   -1.434178016693e-05
    54   -6.626036152788e-06
    55   -4.544037586788e-08
    56    4.754353318215e-01
    57    4.041643126265e-04
    58    8.095887144074e-03
    59   -1.779336820680e-03
    60    5.637302002269e-04
    61    8.534628429493e-04
    62    8.567348166383e-04
    63   -8.643638440678e-04
    64   -2.127862842365e-04
    65   -2.110925074610e-04
    66    2.138062541152e-04
    67    1.349365508553e-04
    68    1.330317812570e-04
    69   -1.394846147442e-04
    70    1.585378087507e-04
    71    1.499327254170e-04
    72   -1.552627341194e-04
    73   -8.921254949725e-08
    74   -4.412311215732e-05
    75   -4.455148001602e-05
    76   -9.310438761514e-07
    77    4.388640576785e-05
    78    2.266388244254e-06
    79    5.600801620669e-05
    80    5.497441973261e-05
    81    2.216357513372e-06
    82   -5.694102050788e-05
    83    2.818398307944e-06
    84   -1.466122799230e-04
    85   -1.478773762666e-04
    86   -3.670902383506e-07
    87    1.424427888737e-04
    88   -9.210437853309e-06
    89   -5.934671303798e-06
    90   -6.283967324801e-06
    91   -4.459312371452e-07
    92    2.211608472789e-05
    93    7.415315192679e-06
    94   -7.197377943075e-06
    95    3.194023132243e-05
    96    2.033081777951e-05
    97    2.185629893372e-05
    98   -2.345620529936e-08
    99    3.992477357509e-05
   100   -2.409450900055e-05
   101    2.453400734767e-05
   102   -9.237692576888e-06
   103   -5.497172723565e-06
   104   -5.634869314323e-06
   105    1.837029635018e-08
   106   -1.464322327954e-05
   107   -1.472652331376e-05
   108    1.392270227852e-05
   109   -6.677338830300e-06
   110    9.170148620941e-08
   111    5.164922455681e-01
   112    4.337227063945e-04
   113    8.800010968789e-03
   114   -1.930728501418e-03
   115    8.416276647620e-04
   116    9.387488230967e-04
   117   -9.263959606746e-04
   118    9.354956995515e-04
   119   -2.406367829659e-04
   120    2.401325929319e-04
   121   -2.416760767026e-04
   122    1.784959311553e-04
   123   -1.749583871952e-04
   124    1.796544095820e-04
   125    2.038952964537e-04
   126   -2.098315253515e-04
   127    2.101810584430e-04
   128   -7.088795924327e-07
   129    4.565632565643e-05
   130   -4.477393125991e-05
   131    5.326869102496e-07
   132   -4.507823871131e-05
   133    2.845148709249e-06
   134   -5.050952149573e-05
   135    5.261558929912e-05
   136    7.010970811793e-07
   137    5.161995201299e-05
   138    7.009055570452e-07
   139    1.730077739345e-04
   140   -1.674508484396e-04
   141    2.584898553860e-06
   142   -1.686908951946e-04
   143    9.583401906295e-06
   144   -6.180078335554e-06
   145    5.765146439416e-06
   146   -6.883594088509e-07
   147    2.469755419224e-05
   148    7.372531880169e-06
   149    8.054452093385e-06
   150   -3.665818026606e-05
   151    2.415989603158e-05
   152   -2.258700991883e-05
   153    2.419234795259e-06
   154    3.153071599246e-05
   155   -2.882529920127e-05
   156   -2.908840853934e-05
   157   -1.030565981286e-05
   158    5.581366336379e-06
   159   -5.733629410931e-06
   160    7.595970598852e-07
   161    1.495074247012e-05
   162    1.474026630933e-05
   163    1.443992682617e-05
   164   -8.107649036954e-06
   165    1.219466925324e-07
   166    4.930971028007e-01
   167    4.170213181356e-04
   168    8.399667593755e-03
   169   -1.846043301209e-03
   170    6.844500620294e-04
   171   -8.907075603935e-04
   172    8.941684553549e-04
   173    8.876723976716e-04
   174    2.250844986750e-04
   175   -2.233249227824e-04
   176   -2.260626087305e-04
   177   -1.542053206440e-04
   178    1.520378780344e-04
   179    1.551088840368e-04
   180   -1.790439840312e-04
   181    1.700232556859e-04
   182    1.849216741137e-04
   183   -1.523835815314e-06
   184   -4.419475003858e-05
   185    4.464736715994e-05
   186   -9.732909742611e-07
   187   -4.492669254919e-05
   188    3.643538037293e-06
   189    5.504694351392e-05
   190   -5.401616538580e-05
   191    2.328740506055e-06
   192    5.302244764598e-05
   193   -1.007742345786e-06
   194   -1.549934922899e-04
   195    1.561967099207e-04
   196   -3.493818417739e-07
   197   -1.574954719065e-04
   198    9.525993129665e-06
   199    5.200436080350e-06
   200   -5.640646939387e-06
   201    4.311420138135e-07
   202    2.328875627387e-05
   203   -8.052365461482e-06
   204   -7.767490140302e-06
   205   -3.324459519974e-05
   206   -2.096707085365e-05
   207    2.094752174562e-05
   208   -9.377396237995e-07
   209    3.609668575136e-05
   210    2.695982438596e-05
   211    2.862459627104e-05
   212   -9.286069589661e-06
   213   -5.964262132142e-06
   214    5.459745300881e-06
   215    4.130178359440e-08
   216    1.460586628009e-05
   217   -1.473494504335e-05
   218   -1.414903093241e-05
   219   -7.826469702453e-06
   220   -4.228151435383e-07
Sym=X
Ene= -15.747736
Spin=Alpha
Occup=1
     1   -2.921503763372e-01
     2   -1.924164536874e-04
     3   -4.869326463550e-03
     4    8.401933921257e-04
     5   -1.795644756191e-03
     6    4.792129825991e-04
     7    5.519710938897e-04
     8    4.901817248500e-04
     9   -2.398357941704e-04
    10   -1.225360229305e-04
    11   -2.106078544282e-04
    12    3.830612236709e-04
    13    2.195303778144e-04
    14    3.409850922688e-04
    15    5.154285160128e-04
    16    5.224579162711e-05
    17    4.083283872341e-04
    18    6.587314421039e-06
    19    6.778680116660e-06
    20   -2.079765386025e-05
    21    2.026627257406e-05
    22   -1.463458939522e-05
    23   -1.442430370210e-05
    24   -2.091541382900e-05
    25   -2.211568286427e-05
    26   -4.212931191666e-05
    27   -2.102191741014e-05
    28   -8.009331404099e-06
    29   -1.460020443236e-04
    30   -1.503955647438e-04
    31   -3.374287338236e-05
    32   -1.521740012973e-04
    33   -4.882246556164e-07
    34    1.448676785441e-05
    35   -4.902561021168e-06
    36    2.227862363992e-05
    37   -1.085798059222e-05
    38    1.003103847116e-05
    39    1.037279119569e-06
    40   -1.702560440677e-05
    41   -1.716630468959e-06
    42    3.752980491042e-05
    43   -6.913740118798e-06
    44    3.671547231136e-05
    45   -6.395108613514e-06
    46    4.718100019626e-05
    47    7.371412657244e-06
    48   -4.701473642937e-06
    49   -2.025860089184e-06
    50   -3.073876324978e-06
    51   -1.864777845128e-06
    52   -1.674477365123e-05
    53   -8.295032320479e-06
    54    4.592028793735e-06
    55   -6.528622156506e-06
    56   -1.512980896507e-01
    57   -1.002984602337e-04
    58   -2.522230372003e-03
    59    4.408224920271e-04
    60   -9.023950236327e-04
    61   -3.038571880333e-04
    62   -2.374198148686e-04
    63    2.473720221310e-04
    64    1.995302030075e-05
    65    1.427625266601e-04
    66   -1.309410162187e-04
    67   -4.574273506381e-05
    68   -2.221907056201e-04
    69    2.064601724661e-04
    70    1.313391478905e-04
    71   -3.363020728713e-04
    72    2.852400808794e-04
    73    9.184737091360e-06
    74    1.587800149580e-05
    75   -1.254231299970e-05
    76   -2.002620874884e-05
    77   -1.278071472222e-05
    78   -1.925455250687e-05
    79    9.990533464229e-06
    80    9.246549148358e-06
    81    4.105670478829e-05
    82   -9.157640866911e-06
    83   -1.817558699181e-05
    84    7.525064480214e-05
    85    8.183439040194e-05
    86    3.915166184925e-05
    87   -7.185023781814e-05
    88   -5.577766249134e-07
    89    3.596040708590e-06
    90   -1.532218098150e-05
    91   -2.102797238084e-05
    92   -5.948891731956e-06
    93   -5.740661537462e-07
    94    1.061230393860e-05
    95   -5.410583150084e-08
    96   -3.088834346250e-05
    97    6.032050373628e-06
    98    3.404728474572e-06
    99    1.822197722309e-05
   100    3.800470502616e-05
   101    4.601765596749e-06
   102    5.118563927024e-06
   103    2.557512769635e-06
   104    5.501790275647e-06
   105    4.508449735311e-06
   106   -5.189072967916e-06
   107   -8.990401632897e-06
   108   -1.698820375664e-05
   109    8.072932539785e-07
   110    6.393895376941e-06
   111    8.325550570438e-01
   112    5.400508398540e-04
   113    1.387461112658e-02
   114   -2.396358903633e-03
   115    5.304582676814e-03
   116    1.447036534700e-03
   117   -1.438779308398e-03
   118    1.458368936134e-03
   119   -5.686182422995e-04
   120    5.529763106696e-04
   121   -5.408421526329e-04
   122    9.457377786442e-04
   123   -9.249834323375e-04
   124    9.055787513149e-04
   125    1.010945075894e-03
   126   -9.523726610239e-04
   127    9.054029541276e-04
   128    3.345685236895e-06
   129    2.578176389798e-05
   130   -2.803513843970e-05
   131   -1.819830511889e-06
   132   -2.191713371484e-05
   133   -4.199691791249e-06
   134    6.878933374613e-05
   135   -6.607917497227e-05
   136    7.577264882537e-06
   137   -6.654942636791e-05
   138   -7.754205184986e-06
   139    4.344350783115e-04
   140   -4.341564480136e-04
   141    5.944417597728e-06
   142   -4.354522854058e-04
   143    8.211927448374e-07
   144   -1.674238579663e-06
   145    4.346777758579e-06
   146    3.042940002965e-06
   147    3.285169486403e-05
   148   -7.807197281187e-07
   149   -1.816143191846e-06
   150   -8.445336719698e-05
   151    4.433167379043e-05
   152   -4.874755912398e-05
   153    4.175270461330e-07
   154   -1.114385772167e-04
   155   -5.576410228640e-05
   156   -6.156470476564e-05
   157   -1.867679810344e-05
   158    1.455659102947e-06
   159   -1.504406086388e-06
   160    4.837280714826e-07
   161    1.191753005232e-05
   162    8.965339775724e-06
   163    6.200813116194e-06
   164   -1.654739484906e-05
   165   -5.806579118370e-07
   166   -4.298509339405e-01
   167   -2.812572401563e-04
   168   -7.164736488744e-03
   169    1.249249295148e-03
   170   -2.656818944498e-03
   171    7.249753497591e-04
   172   -7.345888472298e-04
   173   -7.831590925641e-04
   174   -3.243823919466e-04
   175    3.105113700902e-04
   176    2.146223807760e-04
   177    5.239291955808e-04
   178   -5.040150720615e-04
   179   -3.660898989378e-04
   180    6.367103129910e-04
   181   -5.848625445872e-04
   182   -2.216323533901e-04
   183   -1.870296468923e-05
   184    2.016263457362e-05
   185   -2.347451289011e-05
   186    2.676132244005e-06
   187   -1.813566893298e-06
   188    3.811700531853e-05
   189    3.084305220726e-05
   190   -3.070598865666e-05
   191   -5.485748846615e-06
   192    3.078642814668e-05
   193    3.711400450068e-05
   194    2.200922414276e-04
   195   -2.184099073850e-04
   196   -3.091429003230e-06
   197    2.255346363632e-04
   198   -2.743330979320e-06
   199   -1.269771196482e-05
   200    1.498759160932e-05
   201   -2.374868948407e-06
   202   -1.693633114204e-05
   203   -1.033212881041e-05
   204   -1.158325842662e-05
   205    7.132226227658e-05
   206    1.604725190672e-05
   207   -1.890971651627e-05
   208    5.749083455834e-07
   209    5.496798086847e-05
   210   -1.566402726343e-05
   211   -1.961653262837e-05
   212    7.124834702127e-06
   213   -5.320612833522e-06
   214    6.159595479339e-06
   215   -6.556788530544e-07
   216   -1.880023276124e-05
   217    1.234558297874e-06
   218   -1.683893346499e-06
   219    1.164404385854e-05
   220    5.659796485150e-07
Sym=X
Ene= -15.747722
Spin=Alpha
Occup=1
     1    8.018308175699e-01
     2    5.177515842024e-04
     3    1.335149107863e-02
     4   -2.304763992669e-03
     5    5.072165350535e-03
     6   -1.406262761325e-03
     7   -1.391698744839e-03
     8   -1.380638795038e-03
     9    5.100901131568e-04
    10    5.648219903441e-04
    11    5.272374575729e-04
    12   -8.545947201705e-04
    13   -9.364309321893e-04
    14   -8.759731287853e-04
    15   -8.240999379410e-04
    16   -1.015218855843e-03
    17   -9.093504647148e-04
    18   -4.582500775184e-07
    19    3.012113405179e-05
    20    1.896701932020e-05
    21    7.749870696133e-06
    22    2.454730827953e-05
    23    3.482918326920e-06
    24    6.364604347767e-05
    25    6.173882811369e-05
    26   -1.440313280004e-05
    27    6.010534768931e-05
    28   -9.709118073516e-06
    29    4.103600270220e-04
    30    4.187495425591e-04
    31   -2.033153620334e-05
    32    4.253510963060e-04
    33   -5.577667548966e-07
    34    2.692062617797e-06
    35   -3.638613042374e-06
    36    7.441242657945e-06
    37    3.141953229676e-05
    38   -9.640673375313e-08
    39    3.940351223105e-06
    40    7.607674626718e-05
    41   -5.151074682251e-05
    42   -3.728908392903e-05
    43   -7.085527988809e-07
    44   -1.062032515614e-04
    45    6.935704007512e-05
    46   -5.149075617762e-05
    47   -1.892319042807e-05
    48    2.484847749727e-06
    49    3.172501556916e-06
    50   -1.092151370781e-06
    51   -8.181023142614e-06
    52    3.858880085135e-06
    53   -1.340230021708e-05
    54   -1.506115543649e-05
    55   -2.805970215696e-06
    56   -2.621937732871e-01
    57   -1.695308015746e-04
    58   -4.365848799097e-03
    59    7.650542744079e-04
    60   -1.619489353557e-03
    61   -4.480282601937e-04
    62   -4.230150837903e-04
    63    4.960320681559e-04
    64    1.860342732721e-04
    65    2.339606773884e-04
    66   -1.035451818840e-04
    67   -3.031518503915e-04
    68   -3.723902802984e-04
    69    1.804652026736e-04
    70   -3.356148554472e-04
    71   -5.197672136431e-04
    72    3.075663730030e-05
    73   -2.021390010461e-05
    74    2.199494671958e-05
    75    1.102615766698e-05
    76   -7.766324107743e-06
    77    8.311844174816e-06
    78    3.950867816386e-05
    79    1.834664671483e-05
    80    1.849174042357e-05
    81    1.557490197891e-05
    82   -1.717791519324e-05
    83    3.966623280060e-05
    84    1.305289012539e-04
    85    1.327260888315e-04
    86    1.601355907534e-05
    87   -1.446239328785e-04
    88    2.327060089888e-06
    89    1.702757490087e-05
    90    9.876202937457e-06
    91   -8.059982896149e-06
    92   -1.021300020431e-05
    93    1.286410919779e-05
    94   -8.635044378864e-06
    95   -5.568771392043e-05
    96   -1.414150738724e-05
    97    1.244899744777e-07
    98    9.716158104132e-07
    99    3.343228955837e-05
   100    1.504879834199e-05
   101    1.701424543457e-06
   102    2.688389221759e-06
   103   -7.268173856309e-06
   104   -6.090765156510e-06
   105    1.556110155364e-06
   106    1.796709440960e-05
   107   -7.456038929971e-06
   108   -2.747205087357e-06
   109    9.568370085996e-06
   110    2.738902717383e-06
   111   -3.613490860771e-02
   112   -2.499877394100e-05
   113   -6.029871263746e-04
   114    9.910284397430e-05
   115   -2.095970814327e-04
   116   -4.797206576230e-05
   117    1.055453350528e-04
   118   -3.418623428674e-05
   119    4.718211721822e-05
   120    5.351039918669e-05
   121    7.197127572248e-05
   122   -7.190359865538e-05
   123   -6.999596796312e-05
   124   -1.074589128662e-04
   125   -1.373038534822e-04
   126   -2.581050179645e-04
   127   -2.298840808354e-04
   128    1.436951680639e-05
   129    1.615618517068e-05
   130    7.537744462045e-06
   131    1.688437160844e-05
   132    1.337531614195e-05
   133   -3.030149821513e-05
   134   -2.324737948719e-06
   135    2.319942734365e-06
   136   -3.554165855603e-05
   137    2.623747303813e-06
   138   -2.502087078045e-05
   139   -1.648787696104e-05
   140    1.872809569941e-05
   141   -2.935532538411e-05
   142    1.692578351003e-05
   143    1.700945243246e-06
   144   -1.861604513165e-05
   145    2.021121930829e-06
   146   -1.873475204655e-05
   147   -1.471620311058e-06
   148   -1.357096849741e-05
   149   -4.602803342082e-06
   150   -2.048993956125e-05
   151    1.019806503513e-05
   152    2.263555034175e-05
   153    4.857803741689e-06
   154    3.947915057734e-06
   155   -3.869902187225e-06
   156    3.100849269683e-05
   157    2.287601055109e-06
   158   -6.559106798770e-06
   159    4.319454225368e-06
   160   -2.597933665422e-06
   161    9.716986293354e-06
   162   -1.421435647518e-05
   163    6.679005471459e-06
   164   -1.618633430415e-06
   165    5.190532826852e-06
   166   -5.226637946474e-01
   167   -3.394626787322e-04
   168   -8.706356549924e-03
   169    1.508298790140e-03
   170   -3.268627106136e-03
   171    9.421062659989e-04
   172   -8.875183671182e-04
   173   -8.956017943951e-04
   174   -2.849324046557e-04
   175    3.887777081676e-04
   176    3.652316226134e-04
   177    4.842349911790e-04
   178   -6.347206252445e-04
   179   -6.002727100738e-04
   180    3.570728960517e-04
   181   -7.543492490509e-04
   182   -6.622545482469e-04
   183    6.108042933269e-06
   184    2.609396069289e-05
   185   -2.139481142185e-06
   186   -1.678982875759e-05
   187    2.112454696233e-05
   188   -1.342169351826e-05
   189    3.851797040920e-05
   190   -3.878059622275e-05
   191    3.415774449531e-05
   192    3.952242224767e-05
   193   -8.163586375848e-06
   194    2.689833662215e-04
   195   -2.744750962132e-04
   196    3.327663851529e-05
   197    2.694215369497e-04
   198    1.935473084031e-07
   199   -4.397853469670e-06
   200   -1.095927760586e-05
   201    1.799537879783e-05
   202   -2.049002481454e-05
   203   -1.860727953684e-07
   204    8.546176885415e-06
   205    4.075536328418e-05
   206    4.708469132929e-05
   207   -1.599174852661e-05
   208   -2.607710914900e-06
   209    6.781416722392e-05
   210   -6.054985282737e-05
   211   -2.479410693450e-05
   212    1.309304716747e-05
   213    2.780460451509e-06
   214   -4.728135535538e-06
   215    3.573248069705e-06
   216   -1.877508799918e-06
   217   -4.229075326844e-06
   218    1.791471669940e-05
   219    8.854982898081e-06
   220   -5.283450664355e-06
Sym=X
Ene= -15.747696
Spin=Alpha
Occup=1
     1   -8.777999121654e-02
     2   -5.378014432791e-05
     3   -1.458411227312e-03
     4    2.538726350846e-04
     5   -5.936467210522e-04
     6    1.228500967391e-04
     7    1.438115543309e-04
     8    1.920886230640e-04
     9   -1.179551392543e-04
    10   -8.191764711469e-05
    11    1.609391718500e-05
    12    1.878610416564e-04
    13    1.350701497372e-04
    14   -1.073918961989e-05
    15    3.186903053620e-04
    16    1.813854292020e-04
    17   -1.804510971822e-04
    18   -2.144476167157e-05
    19   -6.934633033705e-06
    20   -1.557056843124e-05
    21    6.010676234726e-06
    22    1.570530212688e-05
    23    4.404562273012e-05
    24   -7.467626041534e-06
    25   -7.035176225711e-06
    26   -1.260424852099e-05
    27   -7.894300685559e-06
    28    4.286081843568e-05
    29   -4.432421363409e-05
    30   -4.088240656095e-05
    31   -1.088234501063e-05
    32   -5.837388701967e-05
    33    2.640663246092e-06
    34   -1.142574782189e-05
    35   -1.700074346501e-05
    36    6.305816207798e-06
    37   -3.956994627359e-06
    38   -1.078799531358e-05
    39    1.359056616318e-05
    40   -4.145182327471e-05
    41   -9.257267871255e-06
    42    3.956838095897e-07
    43   -8.261295096055e-07
    44    1.299394606246e-05
    45    1.292992114119e-05
    46   -3.903545071710e-07
    47   -1.947813059064e-06
    48    6.770103415223e-06
    49    8.002939866277e-06
    50   -1.783173332546e-06
    51    1.734706140230e-05
    52    3.867442076223e-07
    53   -8.240400819363e-06
    54    6.693334226834e-06
    55   -1.735711271370e-06
    56    8.176050862683e-01
    57    5.281173770839e-04
    58    1.360582983127e-02
    59   -2.347179593167e-03
    60    5.093927059410e-03
    61    1.406845860199e-03
    62    1.430195152833e-03
    63   -1.418696585318e-03
    64   -5.511921930335e-04
    65   -5.153901677474e-04
    66    5.605206678567e-04
    67    9.105479351386e-04
    68    8.586690096328e-04
    69   -9.237275703582e-04
    70    9.576006387767e-04
    71    8.203555329356e-04
    72   -9.894568070556e-04
    73   -4.763984642964e-06
    74   -1.972934940271e-05
    75   -2.839992702759e-05
    76   -6.721379162114e-06
    77    2.922365581772e-05
    78    1.426223299746e-05
    79   -5.951929342100e-05
    80   -6.008521620046e-05
    81    1.432840748539e-05
    82    5.731616397877e-05
    83    1.100764324032e-05
    84   -4.262383361118e-04
    85   -4.238807627563e-04
    86    1.008437060223e-05
    87    4.217890172359e-04
    88   -5.189308397228e-07
    89    5.502217831190e-06
    90   -1.796178779246e-07
    91   -6.417798929929e-06
    92    3.168829159222e-05
    93    5.669033605618e-06
    94   -2.906722576280e-06
    95    6.888206308200e-05
    96    4.447949036503e-05
    97    5.495545579019e-05
    98    8.242691164448e-07
    99   -1.054895411752e-04
   100   -5.759525224964e-05
   101    6.905428935096e-05
   102   -1.981212842379e-05
   103   -5.346802112219e-06
   104   -4.431188866306e-06
   105    1.572352283685e-06
   106   -5.466578341904e-06
   107   -1.342816158985e-05
   108    5.693743134288e-06
   109   -1.470520621056e-05
   110    1.469669957703e-06
   111   -1.578792952868e-01
   112   -1.000752577211e-04
   113   -2.626541594428e-03
   114    4.463444586195e-04
   115   -1.042706764712e-03
   116   -3.154844678197e-04
   117    2.641480208584e-04
   118   -2.427853800388e-04
   119    3.495206113572e-05
   120   -1.212014093588e-04
   121    1.652813946252e-04
   122   -7.805821140886e-05
   123    2.032803846690e-04
   124   -2.674640607393e-04
   125    8.868371633737e-05
   126    2.437100227875e-04
   127   -4.079536735745e-04
   128    1.673736855568e-05
   129   -7.781351450584e-06
   130   -1.276944617017e-05
   131   -1.456781372213e-05
   132    1.779743989634e-05
   133   -3.497904060920e-05
   134   -1.461307761384e-05
   135    1.399948373222e-05
   136    2.965782129866e-05
   137    1.380330733167e-05
   138   -2.958985171020e-05
   139   -8.467255122922e-05
   140    8.815897432152e-05
   141    2.576130251259e-05
   142    7.982694459902e-05
   143    1.626982011177e-06
   144   -4.704941739656e-06
   145    1.830784774585e-05
   146    1.524885913661e-05
   147   -6.130472085797e-06
   148   -6.213131194612e-06
   149   -1.373451101955e-05