Process 0 of 1 is on He - thread support 0
initial socket setup ...start
initial socket setup ...done 
now start server 0 ... 
He 127.0.1
Q-Chem Developer Version! Running on 127.0.1.*
                  Welcome to Q-Chem
     A Quantum Leap Into The Future Of Chemistry


 Q-Chem 4.4, Q-Chem, Inc., Pleasanton, CA (2016)

 Y. Shao,  Z. Gan,  E. Epifanovsky,  A. T. B. Gilbert,  M. Wormit,  
 J. Kussmann,  A. W. Lange,  A. Behn,  J. Deng,  X. Feng,  D. Ghosh,  
 M. Goldey,  P. R. Horn,  L. D. Jacobson,  I. Kaliman,  F.Rob,  
 R. Z. Khaliullin,  T. Kus,  A. Landau,  J. Liu,  E. I. Proynov,  Y. M. Rhee,  
 R. M. Richard,  M. A. Rohrdanz,  R. P. Steele,  E. J. Sundstrom,  
 H. L. Woodcock III,  P. M. Zimmerman,  D. Zuev,  B. Albrecht,  E. Alguire,  
 B. Austin,  S. A. Baeppler,  G. J. O. Beran,  Y. A. Bernard,  E. Berquist,  
 K. Brandhorst,  K. B. Bravaya,  S. T. Brown,  D. Casanova,  C.-M. Chang,  
 Y. Chen,  S. H. Chien,  K. D. Closser,  M. P. Coons,  D. L. Crittenden,  
 S. Dasgupta,  M. Diedenhofen,  R. A. DiStasio Jr.,  H. Do,  A. D. Dutoi,  
 R. G. Edgar,  P.-T. Fang,  S. Fatehi,  Q. Feng,  L. Fusti-Molnar,  
 A. Ghysels,  A. Golubeva-Zadorozhnaya,  J. Gomes,  A. Gunina,  
 M. W. D. Hanson-Heine,  P. H. P. Harbach,  A. W. Hauser,  J. E. Herr,  
 E. G. Hohenstein,  Z. C. Holden,  K. Hui,  T.-C. Jagau,  H. Ji,  B. Kaduk,  
 K. Khistyaev,  Jaehoon Kim,  Jihan Kim,  R. A. King,  P. Klunzinger,  
 K. Koh,  D. Kosenkov,  T. Kowalczyk,  C. M. Krauter,  A. Kunitsa,  
 K. U. Lao,  A. Laurent,  K. V. Lawler,  J. Lee,  D. Lefrancois,  S. Lehtola,  
 S. V. Levchenko,  C. Y. Lin,  Y.-S. Lin,  F. Liu,  E. Livshits,  
 R. C. Lochan,  A. Luenser,  P. Manohar,  S. F. Manzer,  S.-P. Mao,  Y. Mao,  
 N. Mardirossian,  A. V. Marenich,  L. A. Martinez-Martinez,  S. A. Maurer,  
 N. J. Mayhall,  J.-M. Mewes,  A. F. Morrison,  K. Nanda,  T. S. Nguyen-Beck,  
 C. M. Oana,  R. Olivares-Amaya,  D. P. O'Neill,  J. A. Parkhill,  
 T. M. Perrine,  R. Peverati,  P. A. Pieniazek,  F. Plasser,  A. Prociuk,  
 D. R. Rehn,  E. Rosta,  N. J. Russ,  N. Sergueev,  S. M. Sharada,  
 S. Sharma,  D. W. Small,  A. Sodt,  T. Stauch,  T. Stein,  D. Stuck,  
 Y.-C. Su,  A. J. W. Thom,  T. Tsuchimochi,  L. Vogt,  O. Vydrov,  T. Wang,  
 M. A. Watson,  J. Wenzel,  A. White,  C. F. Williams,  V. Vanovschi,  
 K. Yao,  S. Yeganeh,  S. R. Yost,  Z.-Q. You,  I. Y. Zhang,  X. Zhang,  
 Y. Zhao,  B. R. Brooks,  G. K. L. Chan,  D. M. Chipman,  C. J. Cramer,  
 W. A. Goddard III,  M. S. Gordon,  W. J. Hehre,  A. Klamt,  
 H. F. Schaefer III,  M. W. Schmidt,  C. D. Sherrill,  D. G. Truhlar,  
 A. Warshel,  X. Xu,  A. Aspuru-Guzik,  R. Baer,  A. T. Bell,  N. A. Besley,  
 J.-D. Chai,  A. Dreuw,  B. D. Dunietz,  T. R. Furlani,  S. R. Gwaltney,  
 C.-P. Hsu,  Y. Jung,  J. Kong,  D. S. Lambrecht,  W. Liang,  C. Ochsenfeld,  
 V. A. Rassolov,  L. V. Slipchenko,  J. E. Subotnik,  T. Van Voorhis,  
 J. M. Herbert,  A. I. Krylov,  P. M. W. Gill,  M. Head-Gordon

 Contributors to earlier versions of Q-Chem not listed above: 
 R. D. Adamson,  J. Baker,  E. F. C. Byrd,  A. K. Chakraborty,  C.-L. Cheng,  
 H. Dachsel,  R. J. Doerksen,  G. Hawkins,  A. Heyden,  S. Hirata,  
 G. Kedziora,  F. J. Keil,  C. Kelley,  P. P. Korambath,  W. Kurlancheek,  
 A. M. Lee,  M. S. Lee,  D. Liotard,  I. Lotan,  P. E. Maslen,  N. Nair,  
 D. Neuhauser,  R. Olson,  B. Peters,  J. Ritchie,  N. E. Schultz,  
 N. Shenvi,  A. C. Simmonett,  K. S. Thanthiriwatte,  Q. Wu,  W. Zhang

 Please cite Q-Chem as follows:
 Y. Shao et al., Mol. Phys. 113, 184-215 (2015)
 DOI: 10.1080/00268976.2014.952696

 Q-Chem 4.4.1 for Intel X86 EM64T Linux

 Parts of Q-Chem use Armadillo 5.200.1 (Boston Tea Smuggler).
 http://arma.sourceforge.net/

 Q-Chem begins on Wed May 17 06:13:19 2017  


Host: 0

     Scratch files written to /home/vladimir/scratch/qchem19650//
 Parallel job on  1  processors

Checking the input file for inconsistencies... 	...done.

--------------------------------------------------------------
User input:
--------------------------------------------------------------
$comment0
$end

$rem
SYMMETRY              false
SYM_IGNORE            true
BASIS                 cc-pVQZ
METHOD                HF
SCF_CONVERGENCE       8
MOLDEN_FORMAT         true
PRINT_ORBITALS        1000
$end

$molecule
   0 1
   N       0.5200      0.5300      0.5100
   N      -0.5200     -0.5200      0.5200
   N      -0.5200      0.5200     -0.5200
   N       0.5200     -0.5200     -0.5200
$end
--------------------------------------------------------------
 ----------------------------------------------------------------
             Standard Nuclear Orientation (Angstroms)
    I     Atom           X                Y                Z
 ----------------------------------------------------------------
    1      N       0.5200000000     0.5300000000     0.5100000000
    2      N      -0.5200000000    -0.5200000000     0.5200000000
    3      N      -0.5200000000     0.5200000000    -0.5200000000
    4      N       0.5200000000    -0.5200000000    -0.5200000000
 ----------------------------------------------------------------
 Nuclear Repulsion Energy =   105.7779404621 hartrees
 There are       14 alpha and       14 beta electrons
 Requested basis set is cc-pVQZ
 There are 60 shells and 220 basis functions

 Total QAlloc Memory Limit   2000 MB
 Mega-Array Size        61 MB
 MEM_STATIC part        62 MB

                       Distance Matrix (Angstroms)
             N (  1)   N (  2)   N (  3)
   N (  2)  1.477904
   N (  3)  1.463762  1.470782
   N (  4)  1.470850  1.470782  1.470782

 A cutoff of  1.0D-11 yielded   1830 shell pairs
 There are     24790 function pairs (     40348 Cartesian)

 -------------------------------------------------------
 OpenMP Integral Computing Module                       
 Release: version 1.0, May 2013, Q-Chem Inc. Pittsburgh 
 -------------------------------------------------------
 Integral Job Info:
 Integral job number is                      11
 Integral operator is                         1
 short-range coefficients                     0
 long-range coefficients              100000000
 Omega coefficients                           0
 if combine SR and LR in K                    0
 Integral screening is                        0
 Integral computing path is                   2
 max size of driver memory is           3200000
 size of driver memory is               1704330
 size of scratch memory is             18410652
 max col of scratch BK array              50625
 max len of scratch array in speh3         2114
 max len of scratch index in speh4           50
 max int batch size is                      520
 min int batch size is                       52
 fixed nKL is                                52
 max L of basis functions is                  4
 order of int derivative is                   0
 number of shells is                         60
 number of basis is                         280
 number of cartesian basis is               280
 number of contracted shell pairs          1830
 number of primitive shell pairs           6794
 maxK2 (contraction) of shell pair           81
 max number of K2 of shell pair               1
 max number of CS2 of shell pair            144
 max number of PS2 of shell pair            972
 mem total for path MDJ                  180202
 -------------------------------------------------------
 Smallest overlap matrix eigenvalue = 6.46E-04

 Scale SEOQF with 1.000000e+00/1.000000e+00/1.000000e+00

 Standard Electronic Orientation quadrupole field applied
 Nucleus-field energy     =     0.0000000001 hartrees
 Guess from superposition of atomic densities
 Warning:  Energy on first SCF cycle will be non-variational
 A restricted Hartree-Fock SCF calculation will be
 performed using Pulay DIIS extrapolation
 SCF converges when DIIS error is below 1.0E-08
 using 12 threads for integral computing 
 ---------------------------------------
  Cycle       Energy         DIIS Error
 ---------------------------------------
    1    -218.5205753384      2.95E-02
    2    -217.5161541278      4.41E-03
    3    -217.5906628305      1.88E-03
    4    -217.6055824785      2.28E-04
    5    -217.6064095775      6.48E-05
    6    -217.6064935048      1.62E-05
    7    -217.6064962597      9.69E-06
    8    -217.6064967772      1.04E-06
    9    -217.6064967866      1.54E-07
   10    -217.6064967868      7.24E-08
   11    -217.6064967868      2.88E-08
   12    -217.6064967870      7.70E-09 Convergence criterion met
 ---------------------------------------
 SCF time:  CPU 648.72 s  wall 57.60 s
 SCF   energy in the final basis set = -217.6064967870
 Total energy in the final basis set = -217.6064967870

 --------------------------------------------------------------

                    Orbital Energies (a.u.)
 --------------------------------------------------------------

 Alpha MOs
 -- Occupied --
-15.749 -15.748 -15.748 -15.748  -1.652  -1.044  -1.041  -1.037
 -0.686  -0.570  -0.569  -0.568  -0.534  -0.529
 -- Virtual --
  0.188   0.191   0.191   0.193   0.194   0.196   0.351   0.414
  0.415   0.417   0.456   0.457   0.513   0.515   0.516   0.558
  0.558   0.558   0.590   0.774   0.775   0.775   0.937   0.939
  0.941   1.186   1.189   1.213   1.269   1.272   1.274   1.308
  1.308   1.309   1.396   1.398   1.410   1.410   1.410   1.411
  1.411   1.411   2.131   2.153   2.154   2.154   2.237   2.238
  2.273   2.352   2.353   2.354   2.590   2.592   2.595   2.705
  2.705   2.710   2.712   2.714   2.851   2.856   2.858   2.861
  2.992   2.993   2.994   3.029   3.036   3.042   3.090   3.129
  3.131   3.133   3.146   3.146   3.146   3.209   3.210   3.241
  3.243   3.245   3.491   3.493   3.494   3.508   3.881   3.883
  3.884   4.039   4.040   4.068   4.175   4.181   4.183   4.185
  4.192   4.227   4.233   4.239   5.090   5.098   5.106   5.612
  5.620   5.629   6.067   6.454   6.457   6.461   6.547   6.736
  6.740   6.744   6.942   6.944   6.946   7.008   7.016   7.166
  7.167   7.167   7.350   7.377   7.723   7.729   7.735   8.030
  8.043   8.057   8.226   8.226   8.289   8.294   8.298   8.490
  8.498   8.505   8.526   8.529   8.586   8.593   8.598   8.624
  8.627   8.630   8.712   8.831   8.917   8.922   8.926   8.977
  8.982   8.988   9.060   9.061   9.063   9.192   9.194   9.196
  9.275   9.275   9.280   9.284   9.288   9.335   9.336   9.339
  9.342   9.344   9.346   9.347   9.351   9.351   9.574   9.674
  9.687   9.699   9.815   9.853   9.860   9.867  10.462  10.473
 10.483  10.742  10.778  10.787  10.811  10.820  10.834  11.348
 11.356  11.361  11.387  11.404  11.892  11.900  11.909  12.712
 12.728  12.744  30.797  32.803  32.809  32.816
 --------------------------------------------------------------


                        RESTRICTED (RHF) MOLECULAR ORBITAL COEFFICIENTS
                         1         2         3         4         5         6
 eigenvalues:        -15.749   -15.748   -15.748   -15.748    -1.652    -1.044
   1  N 1   s        0.50016  -0.29215   0.80183  -0.08778  -0.00539   0.00102
   2  N 1   s        0.00042  -0.00019   0.00052  -0.00005   0.14109  -0.18172
   3  N 1   s        0.00852  -0.00487   0.01335  -0.00146   0.10796  -0.14257
   4  N 1   s       -0.00187   0.00084  -0.00230   0.00025   0.19823  -0.31090
   5  N 1   s        0.00073  -0.00180   0.00507  -0.00059   0.04202  -0.14708
   6  N 1   px      -0.00090   0.00048  -0.00141   0.00012  -0.01792   0.00446
   7  N 1   py      -0.00091   0.00055  -0.00139   0.00014  -0.01790  -0.02812
   8  N 1   pz      -0.00090   0.00049  -0.00138   0.00019  -0.01793   0.02002
   9  N 1   px       0.00023  -0.00024   0.00051  -0.00012  -0.03490   0.00979
  10  N 1   py       0.00023  -0.00012   0.00056  -0.00008  -0.03484  -0.05338
  11  N 1   pz       0.00023  -0.00021   0.00053   0.00002  -0.03493   0.03992
  12  N 1   px      -0.00016   0.00038  -0.00085   0.00019  -0.04054   0.02125
  13  N 1   py      -0.00016   0.00022  -0.00094   0.00014  -0.04056  -0.05635
  14  N 1   pz      -0.00016   0.00034  -0.00088  -0.00001  -0.04050   0.05842
  15  N 1   px      -0.00019   0.00052  -0.00082   0.00032  -0.00635   0.00623
  16  N 1   py      -0.00019   0.00005  -0.00102   0.00018  -0.00638  -0.00748
  17  N 1   pz      -0.00018   0.00041  -0.00091  -0.00018  -0.00632   0.01290
  18  N 1   d 1      0.00004  -0.00001   0.00002   0.00002   0.00132   0.00139
  19  N 1   d 2      0.00004  -0.00002   0.00002  -0.00002   0.00134   0.00055
  20  N 1   d 3     -0.00000   0.00001  -0.00000  -0.00002   0.00000  -0.00131
  21  N 1   d 4      0.00004   0.00001   0.00003  -0.00001   0.00135  -0.00118
  22  N 1   d 5     -0.00000   0.00002   0.00001   0.00001   0.00000  -0.00118
  23  N 1   d 1     -0.00006  -0.00002   0.00006  -0.00001   0.00661   0.00594
  24  N 1   d 2     -0.00005  -0.00002   0.00006  -0.00001   0.00669   0.00112
  25  N 1   d 3      0.00000  -0.00001   0.00000   0.00004  -0.00002  -0.00782
  26  N 1   d 4     -0.00005  -0.00002   0.00006  -0.00001   0.00676  -0.00871
  27  N 1   d 5      0.00000  -0.00004  -0.00001  -0.00001  -0.00001  -0.00701
  28  N 1   d 1      0.00016  -0.00015   0.00043  -0.00006   0.00826   0.00285
  29  N 1   d 2      0.00016  -0.00015   0.00042  -0.00004   0.00827  -0.00197
  30  N 1   d 3     -0.00000  -0.00001  -0.00001   0.00004  -0.00009  -0.00647
  31  N 1   d 4      0.00016  -0.00015   0.00041  -0.00004   0.00829  -0.01179
  32  N 1   d 5     -0.00000  -0.00003  -0.00002  -0.00001  -0.00005  -0.00581
  33  N 1   f 1      0.00001   0.00000   0.00000   0.00001  -0.00013  -0.00016
  34  N 1   f 2      0.00002  -0.00001   0.00003  -0.00000  -0.00012  -0.00048
  35  N 1   f 3      0.00001  -0.00000  -0.00000  -0.00002  -0.00011   0.00030
  36  N 1   f 4     -0.00001  -0.00000  -0.00000   0.00000   0.00019   0.00020
  37  N 1   f 5      0.00001   0.00001   0.00000  -0.00001  -0.00013   0.00073
  38  N 1   f 6      0.00000   0.00002   0.00001   0.00001  -0.00001   0.00069
  39  N 1   f 7     -0.00001   0.00001  -0.00000  -0.00001   0.00013   0.00073
  40  N 1   f 1     -0.00003   0.00005  -0.00005  -0.00000  -0.00186   0.00017
  41  N 1   f 2      0.00004   0.00004  -0.00011   0.00001  -0.00138  -0.00047
  42  N 1   f 3     -0.00002   0.00004  -0.00004   0.00000  -0.00146   0.00164
  43  N 1   f 4      0.00004  -0.00002   0.00008  -0.00004   0.00249  -0.00022
  44  N 1   f 5     -0.00002  -0.00000  -0.00005  -0.00001  -0.00151   0.00313
  45  N 1   f 6     -0.00000  -0.00001  -0.00000  -0.00000  -0.00002   0.00243
  46  N 1   f 7      0.00003  -0.00001   0.00007   0.00001   0.00190   0.00186
  47  N 1   g 1     -0.00000  -0.00001  -0.00000  -0.00000  -0.00001  -0.00023
  48  N 1   g 2     -0.00001  -0.00001  -0.00001  -0.00001  -0.00027   0.00018
  49  N 1   g 3     -0.00001  -0.00000  -0.00001   0.00002  -0.00026   0.00017
  50  N 1   g 4      0.00001  -0.00000   0.00000   0.00001   0.00009  -0.00043
  51  N 1   g 5     -0.00001   0.00001  -0.00002  -0.00000  -0.00055   0.00040
  52  N 1   g 6      0.00001  -0.00000   0.00000   0.00001   0.00010  -0.00032
  53  N 1   g 7      0.00000  -0.00000  -0.00000  -0.00000   0.00001  -0.00032
  54  N 1   g 8      0.00002  -0.00002   0.00000   0.00000   0.00029  -0.00056
  55  N 1   g 9     -0.00001   0.00000  -0.00002   0.00001  -0.00044  -0.00015
  56  N 2   s        0.47544  -0.15130  -0.26219   0.81761  -0.00535  -0.00111
  57  N 2   s        0.00040  -0.00010  -0.00017   0.00053   0.14014   0.19448
  58  N 2   s        0.00810  -0.00252  -0.00437   0.01361   0.10725   0.15259
  59  N 2   s       -0.00178   0.00044   0.00077  -0.00235   0.19700   0.33291
  60  N 2   s        0.00056  -0.00090  -0.00162   0.00509   0.04169   0.15757
  61  N 2   px       0.00085  -0.00030  -0.00045   0.00141   0.01764   0.00531
  62  N 2   py       0.00086  -0.00024  -0.00042   0.00143   0.01776  -0.02673
  63  N 2   pz      -0.00086   0.00025   0.00050  -0.00142  -0.01799  -0.01691
  64  N 2   px      -0.00021   0.00002   0.00019  -0.00055   0.03435   0.01148
  65  N 2   py      -0.00021   0.00014   0.00023  -0.00052   0.03458  -0.05061
  66  N 2   pz       0.00021  -0.00013  -0.00010   0.00056  -0.03506  -0.03396
  67  N 2   px       0.00013  -0.00005  -0.00030   0.00091   0.03994   0.02411
  68  N 2   py       0.00013  -0.00022  -0.00037   0.00086   0.04018  -0.05239
  69  N 2   pz      -0.00014   0.00021   0.00018  -0.00092  -0.04068  -0.05203
  70  N 2   px       0.00016   0.00013  -0.00034   0.00096   0.00625   0.00692
  71  N 2   py       0.00015  -0.00034  -0.00052   0.00082   0.00628  -0.00662
  72  N 2   pz      -0.00016   0.00029   0.00003  -0.00099  -0.00634  -0.01199
  73  N 2   d 1      0.00004  -0.00001   0.00001   0.00003   0.00130  -0.00127
  74  N 2   d 2     -0.00004  -0.00001   0.00001  -0.00003  -0.00134   0.00066
  75  N 2   d 3     -0.00000   0.00001  -0.00002  -0.00000   0.00002   0.00114
  76  N 2   d 4     -0.00004   0.00002   0.00002  -0.00002  -0.00134  -0.00104
  77  N 2   d 5     -0.00000  -0.00002  -0.00001  -0.00001  -0.00001   0.00114
  78  N 2   d 1     -0.00006  -0.00001  -0.00002   0.00006   0.00654  -0.00512
  79  N 2   d 2      0.00005   0.00001   0.00002  -0.00006  -0.00674   0.00159
  80  N 2   d 3      0.00000  -0.00002   0.00004   0.00001   0.00010   0.00687
  81  N 2   d 4      0.00006   0.00001   0.00002  -0.00006  -0.00671  -0.00812
  82  N 2   d 5      0.00000   0.00004   0.00002   0.00001  -0.00007   0.00686
  83  N 2   d 1      0.00014  -0.00007  -0.00014   0.00042   0.00810  -0.00188
  84  N 2   d 2     -0.00015   0.00008   0.00013  -0.00042  -0.00828  -0.00171
  85  N 2   d 3      0.00000  -0.00002   0.00004   0.00001   0.00009   0.00577
  86  N 2   d 4     -0.00015   0.00008   0.00013  -0.00043  -0.00823  -0.01151
  87  N 2   d 5     -0.00000   0.00004   0.00002   0.00001  -0.00006   0.00570
  88  N 2   f 1     -0.00001   0.00001  -0.00001  -0.00000   0.00012  -0.00012
  89  N 2   f 2      0.00002  -0.00001  -0.00001   0.00003  -0.00013   0.00053
  90  N 2   f 3     -0.00001  -0.00002   0.00001  -0.00000   0.00012   0.00022
  91  N 2   f 4     -0.00001  -0.00000   0.00000  -0.00000   0.00019  -0.00021
  92  N 2   f 5     -0.00001   0.00000   0.00002   0.00001   0.00012   0.00063
  93  N 2   f 6     -0.00000  -0.00002  -0.00001  -0.00001   0.00000  -0.00067
  94  N 2   f 7      0.00001  -0.00000   0.00001   0.00001  -0.00014   0.00068
  95  N 2   f 1      0.00002   0.00000   0.00000   0.00007   0.00184   0.00035
  96  N 2   f 2      0.00004   0.00002   0.00003  -0.00011  -0.00139   0.00057
  97  N 2   f 3      0.00002   0.00001   0.00000   0.00005   0.00152   0.00140
  98  N 2   f 4      0.00003  -0.00000  -0.00006   0.00007   0.00243   0.00025
  99  N 2   f 5      0.00002  -0.00003  -0.00001   0.00004   0.00152   0.00290
 100  N 2   f 6     -0.00000   0.00000   0.00000   0.00000   0.00001  -0.00241
 101  N 2   f 7     -0.00002   0.00004   0.00002  -0.00006  -0.00191   0.00163
 102  N 2   g 1      0.00000   0.00001   0.00000   0.00000  -0.00001   0.00023
 103  N 2   g 2      0.00001  -0.00002  -0.00000   0.00001   0.00026   0.00021
 104  N 2   g 3     -0.00001  -0.00001   0.00002  -0.00001  -0.00027  -0.00023
 105  N 2   g 4     -0.00001   0.00001  -0.00001  -0.00000  -0.00009  -0.00042
 106  N 2   g 5     -0.00001   0.00001   0.00000  -0.00002  -0.00054  -0.00037
 107  N 2   g 6     -0.00001   0.00000  -0.00001  -0.00001  -0.00010  -0.00030
 108  N 2   g 7      0.00000   0.00000   0.00000   0.00000   0.00000   0.00032
 109  N 2   g 8     -0.00001  -0.00001  -0.00001  -0.00001  -0.00026  -0.00058
 110  N 2   g 9     -0.00001   0.00000   0.00001  -0.00001  -0.00045   0.00010
 111  N 3   s        0.51649   0.83256  -0.03613  -0.15788  -0.00542   0.00060
 112  N 3   s        0.00043   0.00054  -0.00002  -0.00010   0.14204  -0.10717
 113  N 3   s        0.00880   0.01387  -0.00060  -0.00263   0.10865  -0.08405
 114  N 3   s       -0.00193  -0.00240   0.00010   0.00045   0.19947  -0.18340
 115  N 3   s        0.00084   0.00530  -0.00021  -0.00104   0.04235  -0.08676
 116  N 3   px       0.00094   0.00145  -0.00005  -0.00032   0.01820  -0.02448
 117  N 3   py      -0.00093  -0.00144   0.00011   0.00026  -0.01784  -0.03582
 118  N 3   pz       0.00094   0.00146  -0.00003  -0.00024   0.01807  -0.00859
 119  N 3   px      -0.00024  -0.00057   0.00005   0.00003   0.03543  -0.04813
 120  N 3   py       0.00024   0.00055   0.00005  -0.00012  -0.03471  -0.06878
 121  N 3   pz      -0.00024  -0.00054   0.00007   0.00017   0.03520  -0.01733
 122  N 3   px       0.00018   0.00095  -0.00007  -0.00008   0.04114  -0.06475
 123  N 3   py      -0.00017  -0.00092  -0.00007   0.00020  -0.04039  -0.07917
 124  N 3   pz       0.00018   0.00091  -0.00011  -0.00027   0.04089  -0.02678
 125  N 3   px       0.00020   0.00101  -0.00014   0.00009   0.00646  -0.01294
 126  N 3   py      -0.00021  -0.00095  -0.00026   0.00024  -0.00637  -0.01253
 127  N 3   pz       0.00021   0.00091  -0.00023  -0.00041   0.00643  -0.00621
 128  N 3   d 1     -0.00005  -0.00002   0.00001   0.00002  -0.00133  -0.00069
 129  N 3   d 2     -0.00004  -0.00003   0.00001  -0.00001  -0.00133  -0.00152
 130  N 3   d 3     -0.00000   0.00000   0.00001   0.00002   0.00000  -0.00058
 131  N 3   d 4      0.00005   0.00003   0.00002  -0.00001   0.00137  -0.00170
 132  N 3   d 5      0.00000  -0.00000   0.00002  -0.00001   0.00003  -0.00215
 133  N 3   d 1      0.00005  -0.00007   0.00000   0.00001  -0.00666  -0.00280
 134  N 3   d 2      0.00005  -0.00007   0.00000   0.00001  -0.00663  -0.00752
 135  N 3   d 3      0.00000  -0.00000  -0.00003  -0.00003  -0.00001  -0.00343
 136  N 3   d 4     -0.00005   0.00007  -0.00000  -0.00001   0.00684  -0.01083
 137  N 3   d 5      0.00000   0.00001  -0.00004   0.00003   0.00012  -0.01288
 138  N 3   d 1     -0.00017  -0.00044   0.00002   0.00008  -0.00832  -0.00095
 139  N 3   d 2     -0.00017  -0.00043   0.00002   0.00009  -0.00827  -0.00575
 140  N 3   d 3      0.00000  -0.00001  -0.00003  -0.00003  -0.00001  -0.00284
 141  N 3   d 4      0.00017   0.00043  -0.00002  -0.00008   0.00845  -0.01274
 142  N 3   d 5      0.00000   0.00001  -0.00003   0.00003   0.00011  -0.01073
 143  N 3   f 1      0.00001  -0.00000  -0.00000  -0.00001  -0.00014   0.00029
 144  N 3   f 2      0.00002   0.00003  -0.00000  -0.00001  -0.00010  -0.00031
 145  N 3   f 3      0.00001   0.00000   0.00000   0.00002  -0.00010  -0.00018
 146  N 3   f 4      0.00001   0.00000   0.00000   0.00000  -0.00019  -0.00010
 147  N 3   f 5     -0.00001  -0.00000  -0.00002  -0.00000   0.00011  -0.00061
 148  N 3   f 6     -0.00000   0.00000  -0.00002   0.00002   0.00002  -0.00126
 149  N 3   f 7      0.00001  -0.00000  -0.00001  -0.00001  -0.00013  -0.00073
 150  N 3   f 1     -0.00003  -0.00006   0.00003   0.00001  -0.00192   0.00149
 151  N 3   f 2      0.00003  -0.00011   0.00000   0.00002  -0.00137  -0.00039
 152  N 3   f 3     -0.00002  -0.00005   0.00002   0.00000  -0.00147  -0.00032
 153  N 3   f 4     -0.00004  -0.00008  -0.00002  -0.00001  -0.00247   0.00018
 154  N 3   f 5      0.00002   0.00004   0.00001  -0.00003   0.00150  -0.00249
 155  N 3   f 6      0.00000   0.00000   0.00000  -0.00000   0.00007  -0.00453
 156  N 3   f 7     -0.00003  -0.00006  -0.00000   0.00004  -0.00189  -0.00218
 157  N 3   g 1      0.00000  -0.00000   0.00001  -0.00000   0.00000   0.00041
 158  N 3   g 2      0.00001   0.00001   0.00001  -0.00001   0.00027   0.00010
 159  N 3   g 3      0.00001   0.00001   0.00001   0.00001   0.00029  -0.00015
 160  N 3   g 4     -0.00001  -0.00000   0.00000   0.00001  -0.00010   0.00029
 161  N 3   g 5     -0.00001  -0.00002   0.00000   0.00001  -0.00054   0.00020
 162  N 3   g 6      0.00001   0.00000  -0.00001  -0.00001   0.00009  -0.00008
 163  N 3   g 7      0.00000   0.00000  -0.00000   0.00000   0.00001  -0.00059
 164  N 3   g 8      0.00001   0.00001  -0.00001   0.00000   0.00028  -0.00056
 165  N 3   g 9     -0.00001  -0.00002  -0.00000   0.00000  -0.00045  -0.00005
 166  N 4   s        0.49310  -0.42985  -0.52266  -0.53391  -0.00539  -0.00055
 167  N 4   s        0.00042  -0.00028  -0.00034  -0.00034   0.14108   0.09591
 168  N 4   s        0.00840  -0.00716  -0.00871  -0.00888   0.10794   0.07519
 169  N 4   s       -0.00185   0.00125   0.00151   0.00152   0.19822   0.16438
 170  N 4   s        0.00068  -0.00266  -0.00327  -0.00341   0.04202   0.07787
 171  N 4   px      -0.00089   0.00072   0.00094   0.00091  -0.01792  -0.02294
 172  N 4   py       0.00089  -0.00073  -0.00089  -0.00096   0.01804  -0.03648
 173  N 4   pz       0.00089  -0.00078  -0.00090  -0.00091   0.01779   0.01145
 174  N 4   px       0.00023  -0.00032  -0.00028  -0.00038  -0.03489  -0.04505
 175  N 4   py      -0.00022   0.00031   0.00039   0.00030   0.03512  -0.07011
 176  N 4   pz      -0.00023   0.00021   0.00037   0.00039   0.03465   0.02277
 177  N 4   px      -0.00015   0.00052   0.00048   0.00064  -0.04054  -0.06057
 178  N 4   py       0.00015  -0.00050  -0.00063  -0.00051   0.04078  -0.08137
 179  N 4   pz       0.00016  -0.00037  -0.00060  -0.00065   0.04028   0.03309
 180  N 4   px      -0.00018   0.00064   0.00036   0.00072  -0.00635  -0.01207
 181  N 4   py       0.00017  -0.00058  -0.00075  -0.00038   0.00639  -0.01308
 182  N 4   pz       0.00018  -0.00022  -0.00066  -0.00074   0.00632   0.00720
 183  N 4   d 1     -0.00004  -0.00000   0.00002   0.00002  -0.00134   0.00078
 184  N 4   d 2      0.00004  -0.00002  -0.00000  -0.00002   0.00133  -0.00139
 185  N 4   d 3     -0.00000  -0.00002   0.00001   0.00001  -0.00002   0.00076
 186  N 4   d 4     -0.00004   0.00002   0.00003   0.00000  -0.00133  -0.00175
 187  N 4   d 5     -0.00000   0.00000  -0.00002   0.00002  -0.00001   0.00213
 188  N 4   d 1      0.00005   0.00003   0.00004   0.00004  -0.00672   0.00337
 189  N 4   d 2     -0.00005  -0.00003  -0.00004  -0.00004   0.00668  -0.00689
 190  N 4   d 3      0.00000   0.00004  -0.00001  -0.00002  -0.00012   0.00454
 191  N 4   d 4      0.00006   0.00003   0.00004   0.00004  -0.00666  -0.01107
 192  N 4   d 5      0.00000  -0.00001   0.00003  -0.00003  -0.00007   0.01278
 193  N 4   d 1     -0.00016   0.00023   0.00027   0.00028  -0.00832   0.00175
 194  N 4   d 2      0.00016  -0.00022  -0.00027  -0.00028   0.00827  -0.00535
 195  N 4   d 3     -0.00000   0.00004  -0.00001  -0.00002  -0.00010   0.00379
 196  N 4   d 4     -0.00015   0.00022   0.00027   0.00028  -0.00822  -0.01284
 197  N 4   d 5     -0.00000  -0.00000   0.00003  -0.00003  -0.00006   0.01064
 198  N 4   f 1     -0.00001  -0.00001   0.00001   0.00000   0.00013   0.00028
 199  N 4   f 2      0.00002  -0.00002  -0.00002  -0.00002  -0.00012   0.00026
 200  N 4   f 3     -0.00001   0.00001  -0.00001   0.00000   0.00010  -0.00008
 201  N 4   f 4      0.00001  -0.00000   0.00000   0.00000  -0.00019   0.00012
 202  N 4   f 5      0.00001  -0.00001  -0.00000   0.00001  -0.00010  -0.00067
 203  N 4   f 6      0.00000  -0.00000   0.00002  -0.00002  -0.00001   0.00124
 204  N 4   f 7     -0.00001  -0.00001  -0.00000   0.00001   0.00015  -0.00076
 205  N 4   f 1      0.00003  -0.00002  -0.00002  -0.00006   0.00190   0.00138
 206  N 4   f 2      0.00004   0.00005   0.00007   0.00007  -0.00138   0.00027
 207  N 4   f 3      0.00002  -0.00002  -0.00002  -0.00005   0.00141  -0.00002
 208  N 4   f 4     -0.00003   0.00007   0.00004   0.00004  -0.00248  -0.00006
 209  N 4   f 5     -0.00002   0.00002   0.00005   0.00002  -0.00147  -0.00273
 210  N 4   f 6     -0.00000   0.00000  -0.00000   0.00000  -0.00004   0.00447
 211  N 4   f 7      0.00003  -0.00002  -0.00006  -0.00003   0.00193  -0.00233
 212  N 4   g 1     -0.00000   0.00000  -0.00001   0.00000   0.00000  -0.00042
 213  N 4   g 2     -0.00001  -0.00000   0.00002  -0.00000  -0.00028   0.00015
 214  N 4   g 3      0.00001  -0.00002  -0.00000   0.00000   0.00029   0.00009
 215  N 4   g 4      0.00001   0.00001  -0.00000  -0.00000   0.00007   0.00032
 216  N 4   g 5     -0.00001   0.00001   0.00001   0.00001  -0.00054  -0.00022
 217  N 4   g 6     -0.00001  -0.00001   0.00000   0.00001  -0.00010  -0.00011
 218  N 4   g 7      0.00000  -0.00000   0.00000  -0.00000   0.00000   0.00058
 219  N 4   g 8     -0.00001   0.00000  -0.00000   0.00002  -0.00026  -0.00053
 220  N 4   g 9     -0.00001   0.00001   0.00001   0.00001  -0.00045   0.00008
                         7         8         9        10        11        12
 eigenvalues:         -1.041    -1.037    -0.686    -0.570    -0.569    -0.568
   1  N 1   s       -0.00028   0.00099   0.00184   0.00241   0.00260   0.00241
   2  N 1   s        0.05148  -0.18125   0.07604   0.08083   0.08617   0.07912
   3  N 1   s        0.04038  -0.14214   0.06645   0.07180   0.07659   0.07037
   4  N 1   s        0.08827  -0.31134   0.14568   0.14492   0.15409   0.14108
   5  N 1   s        0.04200  -0.14895   0.12833   0.08610   0.09137   0.08346
   6  N 1   px       0.03901   0.00316   0.04269   0.00798   0.07767   0.00428
   7  N 1   py      -0.01889   0.01933   0.04328   0.00789   0.00980   0.07661
   8  N 1   pz      -0.01871  -0.02879   0.04211   0.07741   0.01053   0.00773
   9  N 1   px       0.07526   0.00722   0.08071   0.01365   0.14682   0.00656
  10  N 1   py      -0.03692   0.03856   0.08182   0.01346   0.01697   0.14491
  11  N 1   pz      -0.03655  -0.05464   0.07961   0.14645   0.01842   0.01317
  12  N 1   px       0.09017   0.01870   0.09988   0.02192   0.20005   0.01301
  13  N 1   py      -0.04816   0.05739   0.10140   0.02182   0.02707   0.19746
  14  N 1   pz      -0.04789  -0.05798   0.09837   0.19900   0.02870   0.02168
  15  N 1   px       0.01541   0.00587   0.04303   0.02630   0.09791   0.02236
  16  N 1   py      -0.00926   0.01276   0.04365   0.02633   0.02955   0.09556
  17  N 1   pz      -0.00932  -0.00799   0.04242   0.09610   0.03003   0.02572
  18  N 1   d 1     -0.00110  -0.00107  -0.00199   0.00072  -0.00067  -0.00062
  19  N 1   d 2      0.00195   0.00060  -0.00197  -0.00074   0.00070  -0.00073
  20  N 1   d 3      0.00116   0.00161   0.00003  -0.00225   0.00111   0.00108
  21  N 1   d 4     -0.00110   0.00143  -0.00195  -0.00078  -0.00076   0.00078
  22  N 1   d 5     -0.00206   0.00058   0.00002   0.00002  -0.00189   0.00203
  23  N 1   d 1     -0.00575  -0.00828  -0.01061   0.00316  -0.00390  -0.00363
  24  N 1   d 2      0.01175   0.00139  -0.01048  -0.00421   0.00294  -0.00419
  25  N 1   d 3      0.00702   0.00984   0.00017  -0.01354   0.00669   0.00647
  26  N 1   d 4     -0.00566   0.00615  -0.01035  -0.00443  -0.00442   0.00331
  27  N 1   d 5     -0.01240   0.00350   0.00009   0.00012  -0.01130   0.01213
  28  N 1   d 1     -0.00495  -0.01160  -0.01321  -0.00025  -0.00685  -0.00638
  29  N 1   d 2      0.01278  -0.00169  -0.01306  -0.00692  -0.00069  -0.00692
  30  N 1   d 3      0.00585   0.00828   0.00024  -0.01469   0.00737   0.00707
  31  N 1   d 4     -0.00485   0.00320  -0.01290  -0.00717  -0.00741  -0.00013
  32  N 1   d 5     -0.01036   0.00296   0.00014   0.00019  -0.01220   0.01313
  33  N 1   f 1      0.00085   0.00021   0.00034  -0.00034   0.00063  -0.00060
  34  N 1   f 2      0.00014  -0.00051   0.00103  -0.00052  -0.00057  -0.00055
  35  N 1   f 3     -0.00085  -0.00066   0.00025   0.00080  -0.00051  -0.00041
  36  N 1   f 4     -0.00013  -0.00004  -0.00043   0.00066  -0.00025  -0.00023
  37  N 1   f 5     -0.00012  -0.00086   0.00025   0.00083  -0.00040  -0.00049
  38  N 1   f 6      0.00121  -0.00033  -0.00001   0.00000   0.00082  -0.00085
  39  N 1   f 7      0.00015  -0.00050  -0.00035   0.00031   0.00054  -0.00068
  40  N 1   f 1      0.00287   0.00151   0.00219   0.00003   0.00287  -0.00216
  41  N 1   f 2      0.00015  -0.00062   0.00549  -0.00070  -0.00080  -0.00078
  42  N 1   f 3     -0.00323  -0.00187   0.00163   0.00313  -0.00070  -0.00153
  43  N 1   f 4     -0.00017  -0.00108  -0.00281   0.00239  -0.00211  -0.00194
  44  N 1   f 5     -0.00062  -0.00256   0.00161   0.00322  -0.00143  -0.00059
  45  N 1   f 6      0.00435  -0.00118  -0.00005   0.00000   0.00234  -0.00243
  46  N 1   f 7      0.00071  -0.00256  -0.00225  -0.00015   0.00188  -0.00301
  47  N 1   g 1     -0.00040   0.00012   0.00001   0.00002  -0.00060   0.00065
  48  N 1   g 2     -0.00045   0.00043  -0.00053   0.00020  -0.00008   0.00065
  49  N 1   g 3      0.00008   0.00063  -0.00057  -0.00015   0.00046   0.00043
  50  N 1   g 4      0.00015   0.00020   0.00022  -0.00074   0.00006   0.00044
  51  N 1   g 5     -0.00026  -0.00015   0.00043   0.00021   0.00011   0.00008
  52  N 1   g 6      0.00037   0.00014   0.00022  -0.00076   0.00044   0.00003
  53  N 1   g 7     -0.00056   0.00014   0.00001  -0.00001  -0.00008   0.00006
  54  N 1   g 8     -0.00021  -0.00026   0.00055  -0.00018  -0.00065   0.00011
  55  N 1   g 9      0.00022   0.00046   0.00037   0.00002   0.00013   0.00010
  56  N 2   s        0.00076   0.00059   0.00185  -0.00414   0.00082   0.00082
  57  N 2   s       -0.13850  -0.10842   0.07607  -0.13761   0.02676   0.02674
  58  N 2   s       -0.10870  -0.08506   0.06648  -0.12228   0.02376   0.02380
  59  N 2   s       -0.23728  -0.18620   0.14552  -0.24616   0.04767   0.04760
  60  N 2   s       -0.11285  -0.08907   0.12864  -0.14617   0.02845   0.02809
  61  N 2   px       0.03054  -0.02405  -0.04225   0.04300   0.00330  -0.06377
  62  N 2   py      -0.02701  -0.00819  -0.04246   0.04563  -0.06134   0.00680
  63  N 2   pz      -0.00030  -0.03540   0.04248  -0.06733  -0.02858  -0.02644
  64  N 2   px       0.05833  -0.04724  -0.07988   0.07948   0.00687  -0.12140
  65  N 2   py      -0.05319  -0.01651  -0.08028   0.08449  -0.11677   0.01356
  66  N 2   pz       0.00028  -0.06790   0.08031  -0.12598  -0.05520  -0.05110
  67  N 2   px       0.06484  -0.06418  -0.09887   0.11261   0.00766  -0.16341
  68  N 2   py      -0.07280  -0.02625  -0.09935   0.11945  -0.15701   0.01653
  69  N 2   pz       0.00756  -0.07820   0.09926  -0.17464  -0.07224  -0.06682
  70  N 2   px       0.00972  -0.01305  -0.04251   0.07390  -0.00278  -0.07058
  71  N 2   py      -0.01488  -0.00622  -0.04263   0.07700  -0.06735   0.00062
  72  N 2   pz       0.00328  -0.01265   0.04271  -0.09886  -0.02276  -0.02081
  73  N 2   d 1      0.00027  -0.00162  -0.00195   0.00008  -0.00083  -0.00082
  74  N 2   d 2      0.00133  -0.00148   0.00197  -0.00061   0.00036  -0.00102
  75  N 2   d 3     -0.00006   0.00210  -0.00002   0.00072   0.00192   0.00179
  76  N 2   d 4     -0.00171  -0.00063   0.00196  -0.00053  -0.00098   0.00045
  77  N 2   d 5      0.00203  -0.00055   0.00001  -0.00005   0.00185  -0.00199
  78  N 2   d 1      0.00003  -0.01056  -0.01039   0.00125  -0.00429  -0.00431
  79  N 2   d 2      0.00918  -0.00726   0.01047  -0.00394   0.00199  -0.00492
  80  N 2   d 3     -0.00033   0.01274  -0.00009   0.00436   0.01154   0.01076
  81  N 2   d 4     -0.00826  -0.00240   0.01039  -0.00352  -0.00467   0.00244
  82  N 2   d 5      0.01226  -0.00331   0.00006  -0.00029   0.01109  -0.01192
  83  N 2   d 1     -0.00235  -0.01260  -0.01293   0.00643  -0.00482  -0.00501
  84  N 2   d 2      0.01163  -0.00554   0.01303  -0.00902   0.00281  -0.00337
  85  N 2   d 3     -0.00031   0.01067  -0.00010   0.00478   0.01256   0.01177
  86  N 2   d 4     -0.00604  -0.00063   0.01295  -0.00849  -0.00309   0.00327
  87  N 2   d 5      0.01023  -0.00275   0.00005  -0.00037   0.01198  -0.01295
  88  N 2   f 1      0.00058  -0.00065  -0.00033  -0.00019   0.00042  -0.00081
  89  N 2   f 2     -0.00037  -0.00027   0.00103   0.00089  -0.00017  -0.00017
  90  N 2   f 3     -0.00035   0.00105  -0.00027   0.00020   0.00070   0.00072
  91  N 2   f 4      0.00008  -0.00015  -0.00043  -0.00030  -0.00053  -0.00048
  92  N 2   f 5      0.00040   0.00084  -0.00027   0.00018   0.00076   0.00064
  93  N 2   f 6     -0.00120   0.00034  -0.00001   0.00002  -0.00079   0.00086
  94  N 2   f 7      0.00041   0.00040   0.00034   0.00017   0.00078  -0.00044
  95  N 2   f 1      0.00151  -0.00281  -0.00215   0.00052   0.00213  -0.00291
  96  N 2   f 2     -0.00040  -0.00026   0.00547   0.00122  -0.00023  -0.00021
  97  N 2   f 3     -0.00170   0.00344  -0.00173   0.00146   0.00273   0.00166
  98  N 2   f 4     -0.00043  -0.00109  -0.00275  -0.00006  -0.00282  -0.00261
  99  N 2   f 5      0.00100   0.00269  -0.00172   0.00140   0.00183   0.00258
 100  N 2   f 6     -0.00433   0.00121  -0.00003   0.00009  -0.00225   0.00247
 101  N 2   f 7      0.00203   0.00190   0.00219  -0.00062   0.00267  -0.00220
 102  N 2   g 1      0.00040  -0.00010   0.00001  -0.00001   0.00062  -0.00065
 103  N 2   g 2     -0.00060  -0.00008   0.00053   0.00039  -0.00049   0.00029
 104  N 2   g 3      0.00028   0.00055  -0.00059  -0.00031   0.00041   0.00039
 105  N 2   g 4      0.00001  -0.00030  -0.00020  -0.00036  -0.00075  -0.00030
 106  N 2   g 5      0.00012  -0.00029   0.00044  -0.00022   0.00000   0.00000
 107  N 2   g 6      0.00020  -0.00036  -0.00020  -0.00036  -0.00037  -0.00072
 108  N 2   g 7      0.00057  -0.00016   0.00000  -0.00001   0.00006  -0.00008
 109  N 2   g 8     -0.00006   0.00027  -0.00054  -0.00038  -0.00025   0.00051
 110  N 2   g 9      0.00008   0.00052   0.00037  -0.00015   0.00007   0.00009
 111  N 3   s        0.00076  -0.00104   0.00184   0.00079   0.00067  -0.00415
 112  N 3   s       -0.13780   0.19445   0.07598   0.02664   0.02242  -0.13735
 113  N 3   s       -0.10803   0.15248   0.06641   0.02365   0.01995  -0.12212
 114  N 3   s       -0.23639   0.33385   0.14581   0.04787   0.04027  -0.24550
 115  N 3   s       -0.11250   0.15963   0.12798   0.02851   0.02371  -0.14532
 116  N 3   px       0.03065   0.00482  -0.04314  -0.06478   0.00544   0.04509
 117  N 3   py      -0.00049  -0.01671   0.04290  -0.02826  -0.03234  -0.06559
 118  N 3   pz      -0.02741  -0.02767  -0.04294   0.00634  -0.06423   0.04608
 119  N 3   px       0.05853   0.01056  -0.08156  -0.12340   0.01084   0.08344
 120  N 3   py      -0.00011  -0.03358   0.08110  -0.05461  -0.06232  -0.12267
 121  N 3   pz      -0.05397  -0.05238  -0.08117   0.01265  -0.12241   0.08533
 122  N 3   px       0.06493   0.02342  -0.10091  -0.16564   0.01350   0.11834
 123  N 3   py       0.00709  -0.05163   0.10049  -0.07146  -0.08199  -0.17061
 124  N 3   pz      -0.07386  -0.05437  -0.10045   0.01576  -0.16432   0.12071
 125  N 3   px       0.00970   0.00689  -0.04357  -0.07120   0.00039   0.07736
 126  N 3   py       0.00312  -0.01185   0.04336  -0.02226  -0.02753  -0.09759
 127  N 3   pz      -0.01511  -0.00715  -0.04346   0.00050  -0.07041   0.07792
 128  N 3   d 1     -0.00172  -0.00103   0.00198   0.00040  -0.00112  -0.00051
 129  N 3   d 2      0.00133   0.00067   0.00197  -0.00109   0.00035  -0.00051
 130  N 3   d 3     -0.00176  -0.00156   0.00000   0.00080  -0.00265  -0.00030
 131  N 3   d 4      0.00025  -0.00130  -0.00199  -0.00090  -0.00098   0.00010
 132  N 3   d 5      0.00107  -0.00042  -0.00002  -0.00261  -0.00072  -0.00062
 133  N 3   d 1     -0.00833  -0.00810   0.01057   0.00215  -0.00551  -0.00350
 134  N 3   d 2      0.00915   0.00169   0.01050  -0.00533   0.00187  -0.00347
 135  N 3   d 3     -0.01060  -0.00943   0.00000   0.00483  -0.01589  -0.00175
 136  N 3   d 4     -0.00011  -0.00525  -0.01057  -0.00466  -0.00509   0.00147
 137  N 3   d 5      0.00648  -0.00249  -0.00011  -0.01562  -0.00431  -0.00365
 138  N 3   d 1     -0.00605  -0.01154   0.01317   0.00297  -0.00420  -0.00859
 139  N 3   d 2      0.01164  -0.00160   0.01309  -0.00383   0.00259  -0.00843
 140  N 3   d 3     -0.00888  -0.00788  -0.00001   0.00527  -0.01727  -0.00193
 141  N 3   d 4     -0.00245  -0.00199  -0.01319  -0.00521  -0.00560   0.00677
 142  N 3   d 5      0.00538  -0.00204  -0.00011  -0.01686  -0.00462  -0.00389
 143  N 3   f 1     -0.00080  -0.00024   0.00034   0.00087  -0.00013   0.00027
 144  N 3   f 2     -0.00038   0.00053   0.00102  -0.00019  -0.00016   0.00094
 145  N 3   f 3      0.00090   0.00066   0.00025  -0.00038   0.00094   0.00018
 146  N 3   f 4     -0.00024  -0.00003   0.00043   0.00020  -0.00070   0.00005
 147  N 3   f 5     -0.00052  -0.00082  -0.00026   0.00025  -0.00102  -0.00019
 148  N 3   f 6      0.00063  -0.00025  -0.00001  -0.00112  -0.00032  -0.00026
 149  N 3   f 7     -0.00028  -0.00044   0.00033  -0.00075  -0.00056  -0.00014
 150  N 3   f 1     -0.00234  -0.00165   0.00222   0.00348   0.00060   0.00010
 151  N 3   f 2     -0.00043   0.00060   0.00550  -0.00029  -0.00023   0.00133
 152  N 3   f 3      0.00367   0.00178   0.00168  -0.00035   0.00347   0.00003
 153  N 3   f 4     -0.00014  -0.00110   0.00278   0.00121  -0.00324  -0.00121
 154  N 3   f 5     -0.00230  -0.00234  -0.00170   0.00146  -0.00331   0.00030
 155  N 3   f 6      0.00226  -0.00086  -0.00005  -0.00321  -0.00094  -0.00071
 156  N 3   f 7     -0.00046  -0.00237   0.00216  -0.00308  -0.00117  -0.00152
 157  N 3   g 1     -0.00021   0.00009   0.00001   0.00082   0.00022   0.00021
 158  N 3   g 2     -0.00046   0.00043   0.00055   0.00039   0.00012   0.00054
 159  N 3   g 3     -0.00003   0.00064   0.00057  -0.00022   0.00036   0.00048
 160  N 3   g 4      0.00038   0.00016  -0.00021   0.00006   0.00084  -0.00001
 161  N 3   g 5      0.00043   0.00012   0.00043   0.00001   0.00012  -0.00019
 162  N 3   g 6     -0.00048  -0.00013   0.00021   0.00047  -0.00072   0.00014
 163  N 3   g 7      0.00029  -0.00012  -0.00000  -0.00010  -0.00005  -0.00002
 164  N 3   g 8     -0.00011   0.00030   0.00053  -0.00060  -0.00015   0.00029
 165  N 3   g 9     -0.00027  -0.00046   0.00036   0.00005  -0.00006  -0.00018
 166  N 4   s       -0.00124  -0.00050   0.00184   0.00088  -0.00408   0.00098
 167  N 4   s        0.22482   0.09372   0.07604   0.02951  -0.13534   0.03211
 168  N 4   s        0.17635   0.07355   0.06645   0.02618  -0.12030   0.02860
 169  N 4   s        0.38541   0.16070   0.14567   0.05282  -0.24201   0.05737
 170  N 4   s        0.18336   0.07677   0.12832   0.03162  -0.14348   0.03369
 171  N 4   px       0.02218  -0.02306   0.04269  -0.02620  -0.06848  -0.02642
 172  N 4   py       0.00825   0.01109  -0.04290  -0.06348   0.04502   0.00288
 173  N 4   pz       0.00777  -0.03725  -0.04249   0.00480   0.04037  -0.06690
 174  N 4   px       0.04159  -0.04527   0.08070  -0.05071  -0.12825  -0.05118
 175  N 4   py       0.01738   0.02208  -0.08111  -0.12085   0.08335   0.00616
 176  N 4   pz       0.01645  -0.07157  -0.08032   0.00977   0.07448  -0.12729
 177  N 4   px       0.03958  -0.06079   0.09987  -0.06609  -0.17773  -0.06667
 178  N 4   py       0.03324   0.03215  -0.10036  -0.16237   0.11805   0.00654
 179  N 4   pz       0.03201  -0.08356  -0.09942   0.01162   0.10590  -0.17155
 180  N 4   px       0.00400  -0.01221   0.04303  -0.01952  -0.09976  -0.01956
 181  N 4   py       0.00902   0.00705  -0.04316  -0.06997   0.07659  -0.00457
 182  N 4   pz       0.00878  -0.01382  -0.04292  -0.00171   0.07096  -0.07551
 183  N 4   d 1      0.00088  -0.00175   0.00198   0.00040  -0.00063  -0.00105
 184  N 4   d 2      0.00071  -0.00142  -0.00197  -0.00083   0.00003  -0.00093
 185  N 4   d 3      0.00060  -0.00219   0.00002   0.00077  -0.00049  -0.00260
 186  N 4   d 4      0.00089   0.00080   0.00196  -0.00101  -0.00050   0.00042
 187  N 4   d 5     -0.00108   0.00043   0.00001   0.00258   0.00069   0.00064
 188  N 4   d 1      0.00252  -0.01110   0.01055   0.00221  -0.00410  -0.00505
 189  N 4   d 2      0.00657  -0.00711  -0.01048  -0.00429   0.00102  -0.00495
 190  N 4   d 3      0.00356  -0.01328   0.00010   0.00457  -0.00293  -0.01564
 191  N 4   d 4      0.00257   0.00354   0.01041  -0.00488  -0.00331   0.00232
 192  N 4   d 5     -0.00654   0.00255   0.00006   0.01543   0.00413   0.00382
 193  N 4   d 1     -0.00131  -0.01284   0.01314   0.00311  -0.00913  -0.00336
 194  N 4   d 2      0.01049  -0.00560  -0.01306  -0.00487   0.00622  -0.00590
 195  N 4   d 3      0.00295  -0.01112   0.00009   0.00494  -0.00329  -0.01705
 196  N 4   d 4     -0.00120   0.00202   0.01298  -0.00322  -0.00813   0.00339
 197  N 4   d 5     -0.00548   0.00215   0.00005   0.01665   0.00442   0.00418
 198  N 4   f 1     -0.00053   0.00067  -0.00033   0.00076   0.00020   0.00053
 199  N 4   f 2      0.00061   0.00026   0.00102  -0.00020   0.00090  -0.00021
 200  N 4   f 3      0.00037  -0.00106  -0.00025   0.00027  -0.00026  -0.00098
 201  N 4   f 4      0.00017  -0.00013   0.00044   0.00018   0.00001  -0.00071
 202  N 4   f 5      0.00001   0.00091   0.00025  -0.00034   0.00025   0.00094
 203  N 4   f 6     -0.00064   0.00025   0.00001   0.00108   0.00029   0.00028
 204  N 4   f 7     -0.00001   0.00047  -0.00035  -0.00089  -0.00025   0.00015
 205  N 4   f 1     -0.00101   0.00278  -0.00218   0.00310   0.00169   0.00098
 206  N 4   f 2      0.00068   0.00030   0.00549  -0.00029   0.00125  -0.00028
 207  N 4   f 3      0.00202  -0.00353  -0.00165   0.00151   0.00006  -0.00330
 208  N 4   f 4     -0.00055  -0.00096   0.00280   0.00114  -0.00142  -0.00315
 209  N 4   f 5     -0.00068   0.00299   0.00164  -0.00021   0.00030   0.00351
 210  N 4   f 6     -0.00230   0.00090   0.00003   0.00308   0.00079   0.00084
 211  N 4   f 7      0.00088   0.00206  -0.00223  -0.00354  -0.00013  -0.00059
 212  N 4   g 1      0.00021  -0.00008  -0.00001  -0.00085  -0.00024  -0.00019
 213  N 4   g 2     -0.00062  -0.00009  -0.00053   0.00061  -0.00027   0.00017
 214  N 4   g 3      0.00037   0.00054   0.00057  -0.00022   0.00050   0.00035
 215  N 4   g 4      0.00021  -0.00032   0.00022   0.00046   0.00009  -0.00073
 216  N 4   g 5     -0.00030   0.00033   0.00043   0.00001  -0.00018   0.00014
 217  N 4   g 6     -0.00034   0.00036  -0.00021   0.00008   0.00005   0.00086
 218  N 4   g 7     -0.00029   0.00012   0.00000   0.00007   0.00002   0.00004
 219  N 4   g 8     -0.00028  -0.00023  -0.00055  -0.00040  -0.00054  -0.00008
 220  N 4   g 9     -0.00002  -0.00053   0.00037   0.00005  -0.00019  -0.00004
                        13        14        15        16        17        18
 eigenvalues:         -0.534    -0.529     0.188     0.191     0.191     0.193
   1  N 1   s       -0.00008  -0.00007  -0.00277   0.00076   0.00320   0.00367
   2  N 1   s       -0.00188  -0.00164   0.04607  -0.01181  -0.04908  -0.05870
   3  N 1   s       -0.00172  -0.00150   0.01005  -0.00228  -0.00909  -0.01165
   4  N 1   s       -0.00322  -0.00279   0.06936  -0.01832  -0.07669  -0.08777
   5  N 1   s       -0.00126  -0.00101   1.84836  -0.48825  -2.04701  -2.42740
   6  N 1   px       0.04835  -0.04987  -0.06676  -0.01223  -0.05602   0.00759
   7  N 1   py      -0.06666  -0.01858  -0.04970   0.02130   0.08113   0.00729
   8  N 1   pz       0.01733   0.06781   0.07318   0.00200   0.02077   0.03877
   9  N 1   px       0.09236  -0.09506  -0.10163  -0.02779  -0.12212  -0.00629
  10  N 1   py      -0.12717  -0.03537  -0.07081   0.03425   0.12766  -0.01930
  11  N 1   pz       0.03314   0.12940   0.14779  -0.00065   0.01786   0.05190
  12  N 1   px       0.12725  -0.13202  -0.34683  -0.00477  -0.05971   0.14206
  13  N 1   py      -0.17586  -0.04930  -0.28695   0.09753   0.39115   0.24049
  14  N 1   pz       0.04548   0.17909   0.15714   0.03275   0.19403   0.23542
  15  N 1   px       0.06437  -0.06818  -1.00140   0.07437   0.10886   0.41695
  16  N 1   py      -0.08960  -0.02560  -0.86108   0.24373   1.02596   1.12077
  17  N 1   pz       0.02283   0.09196   0.27521   0.10117   0.62264   0.54050
  18  N 1   d 1      0.00066   0.00251  -0.00332   0.00033   0.00055   0.00145
  19  N 1   d 2      0.00184  -0.00186   0.00098   0.00029   0.00227   0.00186
  20  N 1   d 3     -0.00018  -0.00064   0.00167  -0.00008   0.00008  -0.00085
  21  N 1   d 4     -0.00254  -0.00069   0.00047  -0.00011  -0.00063  -0.00089
  22  N 1   d 5     -0.00068   0.00017  -0.00016  -0.00012  -0.00080  -0.00159
  23  N 1   d 1      0.00398   0.01512  -0.00887   0.00040  -0.00217   0.00313
  24  N 1   d 2      0.01104  -0.01110   0.00793  -0.00066   0.00220   0.00245
  25  N 1   d 3     -0.00125  -0.00460   0.00422  -0.00027  -0.00014  -0.00308
  26  N 1   d 4     -0.01511  -0.00413   0.00630  -0.00115  -0.00593  -0.01253
  27  N 1   d 5     -0.00467   0.00122  -0.00024  -0.00019  -0.00138  -0.00453
  28  N 1   d 1      0.00526   0.02004   0.14946  -0.02382  -0.07359  -0.13176
  29  N 1   d 2      0.01447  -0.01460   0.02207  -0.01878  -0.11130  -0.13214
  30  N 1   d 3     -0.00192  -0.00747  -0.08652   0.00522  -0.00273   0.03062
  31  N 1   d 4     -0.01963  -0.00539   0.03583  -0.01247  -0.04634  -0.00848
  32  N 1   d 5     -0.00722   0.00198   0.00763   0.00736   0.05019   0.06218
  33  N 1   f 1     -0.00066  -0.00081   0.00211  -0.00071  -0.00004  -0.00056
  34  N 1   f 2      0.00002   0.00002   0.00006  -0.00002  -0.00011  -0.00006
  35  N 1   f 3     -0.00084   0.00058  -0.00177   0.00067  -0.00110  -0.00026
  36  N 1   f 4     -0.00027  -0.00106  -0.00007   0.00008   0.00054   0.00060
  37  N 1   f 5      0.00103   0.00010  -0.00156  -0.00052   0.00040   0.00210
  38  N 1   f 6      0.00100  -0.00027   0.00031   0.00082   0.00098   0.00302
  39  N 1   f 7     -0.00016   0.00105  -0.00207  -0.00024   0.00062   0.00231
  40  N 1   f 1     -0.00189  -0.00320  -0.01490   0.00096   0.00046   0.00581
  41  N 1   f 2      0.00007   0.00006  -0.00176   0.00051   0.00218   0.00225
  42  N 1   f 3     -0.00283   0.00269   0.01132   0.00059   0.00718   0.00496
  43  N 1   f 4     -0.00084  -0.00323   0.00543  -0.00138  -0.00599  -0.00609
  44  N 1   f 5      0.00379   0.00096   0.00968  -0.00067   0.00106  -0.00949
  45  N 1   f 6      0.00414  -0.00113  -0.00204  -0.00047  -0.00967  -0.01763
  46  N 1   f 7     -0.00004   0.00375   0.01399  -0.00257  -0.00742  -0.01568
  47  N 1   g 1      0.00066  -0.00018   0.00003   0.00064   0.00025   0.00006
  48  N 1   g 2      0.00012   0.00020   0.00003  -0.00006   0.00109   0.00133
  49  N 1   g 3     -0.00002  -0.00006  -0.00168   0.00021   0.00048   0.00136
  50  N 1   g 4      0.00045   0.00044  -0.00038  -0.00051  -0.00005  -0.00053
  51  N 1   g 5      0.00015   0.00060   0.00060   0.00008   0.00081  -0.00015
  52  N 1   g 6     -0.00017   0.00059  -0.00032   0.00047  -0.00039   0.00014
  53  N 1   g 7     -0.00096   0.00025   0.00021  -0.00004   0.00053   0.00245
  54  N 1   g 8      0.00002  -0.00023   0.00018  -0.00026  -0.00005   0.00067
  55  N 1   g 9     -0.00021  -0.00073  -0.00203   0.00026   0.00052   0.00191
  56  N 2   s        0.00003  -0.00005   0.00253  -0.00056  -0.00105  -0.00531
  57  N 2   s        0.00114  -0.00094  -0.04213   0.00888   0.01732   0.08090
  58  N 2   s        0.00103  -0.00086  -0.00938   0.00178   0.00375   0.01499
  59  N 2   s        0.00199  -0.00159  -0.06256   0.01328   0.02540   0.12447
  60  N 2   s        0.00177  -0.00031  -1.68435   0.36612   0.70151   3.38542
  61  N 2   px      -0.05057   0.04995  -0.05733  -0.06261   0.04919  -0.00026
  62  N 2   py       0.06794   0.01948  -0.05829   0.07039  -0.03898   0.02538
  63  N 2   pz       0.01907   0.06816  -0.07397  -0.00072  -0.00574  -0.04987
  64  N 2   px      -0.09649   0.09522  -0.08607  -0.11763   0.07882  -0.02851
  65  N 2   py       0.12964   0.03709  -0.08781   0.12382  -0.07754   0.00558
  66  N 2   pz       0.03637   0.13004  -0.14764   0.00153  -0.00704  -0.05946
  67  N 2   px      -0.13318   0.13205  -0.30518  -0.18445   0.23629   0.16173
  68  N 2   py       0.17915   0.05165  -0.30790   0.26051  -0.08922   0.34888
  69  N 2   pz       0.05024   0.17990  -0.17137  -0.01854  -0.03285  -0.35595
  70  N 2   px      -0.06771   0.06809  -0.90276  -0.33660   0.73172   0.49782
  71  N 2   py       0.09065   0.02668  -0.90057   0.60778  -0.11462   1.39966
  72  N 2   pz       0.02560   0.09244  -0.33529  -0.04553   0.00990  -1.01551
  73  N 2   d 1      0.00069   0.00253   0.00340  -0.00035  -0.00107  -0.00111
  74  N 2   d 2     -0.00186   0.00183   0.00082   0.00153  -0.00166   0.00297
  75  N 2   d 3     -0.00022  -0.00071  -0.00181   0.00019   0.00080   0.00017
  76  N 2   d 4      0.00255   0.00067   0.00077  -0.00149   0.00131  -0.00048
  77  N 2   d 5     -0.00074   0.00015   0.00000   0.00094  -0.00107   0.00177
  78  N 2   d 1      0.00409   0.01519   0.00977  -0.00091  -0.00443   0.00144
  79  N 2   d 2     -0.01114   0.01094   0.00729   0.00350  -0.00867   0.00458
  80  N 2   d 3     -0.00148  -0.00499  -0.00471   0.00060   0.00258   0.00128
  81  N 2   d 4      0.01525   0.00397   0.00691  -0.00539   0.00241  -0.01264
  82  N 2   d 5     -0.00508   0.00106   0.00006   0.00173  -0.00239   0.00469
  83  N 2   d 1      0.00534   0.02013  -0.14782   0.02296   0.06433   0.13768
  84  N 2   d 2     -0.01455   0.01440   0.02224  -0.04645   0.03602  -0.19468
  85  N 2   d 3     -0.00226  -0.00793   0.08964  -0.00819  -0.03113  -0.00235
  86  N 2   d 4      0.02000   0.00522   0.02391   0.02765  -0.05239  -0.05315
  87  N 2   d 5     -0.00775   0.00173   0.00052  -0.05257   0.05328  -0.07235
  88  N 2   f 1      0.00064   0.00081   0.00211  -0.00030  -0.00178   0.00000
  89  N 2   f 2     -0.00001  -0.00001  -0.00014   0.00002   0.00005   0.00018
  90  N 2   f 3      0.00083  -0.00063  -0.00178  -0.00015   0.00231  -0.00154
  91  N 2   f 4     -0.00026  -0.00102   0.00009  -0.00008  -0.00014  -0.00089
  92  N 2   f 5     -0.00105  -0.00012  -0.00186   0.00055  -0.00035   0.00136
  93  N 2   f 6      0.00101  -0.00026  -0.00014  -0.00180   0.00128  -0.00323
  94  N 2   f 7      0.00013  -0.00106  -0.00223   0.00027   0.00026   0.00191
  95  N 2   f 1      0.00178   0.00317  -0.01460  -0.00193   0.01020   0.00335
  96  N 2   f 2     -0.00003  -0.00005   0.00222  -0.00045  -0.00091  -0.00390
  97  N 2   f 3      0.00276  -0.00284   0.01165   0.00324  -0.00944   0.01285
  98  N 2   f 4     -0.00082  -0.00311  -0.00537   0.00098   0.00159   0.00924
  99  N 2   f 5     -0.00388  -0.00104   0.01127  -0.00498  -0.00016  -0.00373
 100  N 2   f 6      0.00418  -0.00110   0.00019   0.01056  -0.01304   0.02000
 101  N 2   f 7     -0.00006  -0.00377   0.01484  -0.00592  -0.00298  -0.01449
 102  N 2   g 1      0.00062  -0.00019  -0.00002  -0.00067  -0.00020  -0.00006
 103  N 2   g 2     -0.00013  -0.00021   0.00005   0.00048  -0.00094   0.00185
 104  N 2   g 3     -0.00002  -0.00008   0.00171  -0.00024  -0.00080  -0.00111
 105  N 2   g 4     -0.00043  -0.00040  -0.00050  -0.00029  -0.00022  -0.00069
 106  N 2   g 5      0.00017   0.00063  -0.00074   0.00006   0.00059  -0.00085
 107  N 2   g 6      0.00019  -0.00057  -0.00037   0.00030   0.00033  -0.00004
 108  N 2   g 7     -0.00096   0.00026  -0.00005  -0.00077   0.00131  -0.00268
 109  N 2   g 8     -0.00000   0.00024  -0.00008   0.00043  -0.00069   0.00041
 110  N 2   g 9     -0.00020  -0.00073   0.00211  -0.00033  -0.00120  -0.00145
 111  N 3   s       -0.00005   0.00003   0.00025  -0.00070  -0.00211   0.00520
 112  N 3   s       -0.00105   0.00107  -0.00310   0.01038   0.03149  -0.07943
 113  N 3   s       -0.00096   0.00096  -0.00032   0.00174   0.00536  -0.01404
 114  N 3   s       -0.00179   0.00185  -0.00590   0.01663   0.05069  -0.12455
 115  N 3   s       -0.00042   0.00171  -0.13812   0.43981   1.33110  -3.34702
 116  N 3   px      -0.04842   0.04794   0.03494   0.07182  -0.02582   0.00128
 117  N 3   py      -0.06622  -0.01709   0.02879  -0.02075  -0.07297   0.05800
 118  N 3   pz      -0.01635  -0.06660  -0.00983  -0.08240  -0.01652  -0.01671
 119  N 3   px      -0.09246   0.09147   0.06807   0.12416  -0.06180   0.02978
 120  N 3   py      -0.12636  -0.03263   0.05451  -0.03397  -0.12219   0.06460
 121  N 3   pz      -0.03126  -0.12706  -0.01628  -0.15250  -0.04354  -0.00055
 122  N 3   px      -0.12758   0.12681   0.08140   0.28287   0.01107  -0.15770
 123  N 3   py      -0.17478  -0.04519   0.07561  -0.09151  -0.30317   0.46179
 124  N 3   pz      -0.04292  -0.17593  -0.04341  -0.26009   0.03093  -0.23700
 125  N 3   px      -0.06465   0.06519   0.02467   0.72270   0.24218  -0.47548
 126  N 3   py      -0.08898  -0.02317   0.02950  -0.21831  -0.67429   1.65388
 127  N 3   pz      -0.02170  -0.09084  -0.11450  -0.56283   0.22851  -0.74174
 128  N 3   d 1     -0.00069  -0.00251   0.00018   0.00247   0.00095  -0.00204
 129  N 3   d 2     -0.00187   0.00184  -0.00006  -0.00187   0.00086  -0.00298
 130  N 3   d 3     -0.00012  -0.00058   0.00018   0.00132   0.00017  -0.00070
 131  N 3   d 4     -0.00252  -0.00067   0.00030   0.00010   0.00031  -0.00141
 132  N 3   d 5     -0.00063   0.00017   0.00046  -0.00067   0.00005  -0.00209
 133  N 3   d 1     -0.00412  -0.01503   0.00094   0.00720  -0.00029  -0.00088
 134  N 3   d 2     -0.01120   0.01101   0.00210  -0.00753  -0.00130  -0.00502
 135  N 3   d 3     -0.00088  -0.00420   0.00038   0.00266   0.00023  -0.00180
 136  N 3   d 4     -0.01503  -0.00401   0.00254   0.00097   0.00231  -0.01546
 137  N 3   d 5     -0.00442   0.00123   0.00173  -0.00144  -0.00045  -0.00556
 138  N 3   d 1     -0.00541  -0.01971  -0.00218  -0.07780  -0.05819   0.15900
 139  N 3   d 2     -0.01466   0.01452  -0.00876   0.04082  -0.04936   0.19355
 140  N 3   d 3     -0.00144  -0.00691  -0.00785  -0.07097  -0.01304   0.02931
 141  N 3   d 4     -0.01953  -0.00530  -0.02627   0.01250   0.04262  -0.02596
 142  N 3   d 5     -0.00695   0.00201  -0.00877   0.03273  -0.01607   0.08842
 143  N 3   f 1     -0.00069  -0.00082  -0.00063   0.00172   0.00028  -0.00048
 144  N 3   f 2     -0.00001  -0.00001   0.00001   0.00003   0.00008  -0.00021
 145  N 3   f 3     -0.00087   0.00058   0.00070  -0.00195   0.00047  -0.00115
 146  N 3   f 4      0.00031   0.00108  -0.00006  -0.00021   0.00024  -0.00073
 147  N 3   f 5     -0.00102  -0.00007   0.00107   0.00064   0.00032  -0.00190
 148  N 3   f 6     -0.00097   0.00027   0.00044  -0.00095  -0.00057  -0.00402
 149  N 3   f 7      0.00019  -0.00105   0.00087   0.00097   0.00051  -0.00232
 150  N 3   f 1     -0.00197  -0.00320  -0.00014  -0.01118  -0.00310   0.00516
 151  N 3   f 2     -0.00004  -0.00003   0.00011  -0.00046  -0.00140   0.00364
 152  N 3   f 3     -0.00293   0.00265  -0.00053   0.01282  -0.00048   0.01030
 153  N 3   f 4      0.00096   0.00335   0.00039  -0.00181  -0.00413   0.00913
 154  N 3   f 5     -0.00374  -0.00084  -0.00351  -0.00713   0.00097   0.00954
 155  N 3   f 6     -0.00404   0.00111  -0.00514   0.00782  -0.00147   0.02367
 156  N 3   f 7      0.00012  -0.00369  -0.00125  -0.00657  -0.00473   0.01867
 157  N 3   g 1     -0.00067   0.00017  -0.00063  -0.00001  -0.00004  -0.00028
 158  N 3   g 2     -0.00015  -0.00021   0.00034  -0.00063   0.00050  -0.00188
 159  N 3   g 3      0.00000   0.00004   0.00007   0.00102   0.00048  -0.00146
 160  N 3   g 4     -0.00047  -0.00045   0.00029   0.00041   0.00042   0.00071
 161  N 3   g 5      0.00017   0.00061   0.00016   0.00071  -0.00047   0.00050
 162  N 3   g 6     -0.00016   0.00062   0.00017  -0.00051   0.00043   0.00030
 163  N 3   g 7     -0.00094   0.00026  -0.00103   0.00079   0.00040   0.00305
 164  N 3   g 8      0.00004  -0.00024  -0.00051   0.00028   0.00020   0.00063
 165  N 3   g 9     -0.00019  -0.00072  -0.00009  -0.00115  -0.00043   0.00183
 166  N 4   s        0.00007   0.00006   0.00005   0.00051  -0.00002  -0.00380
 167  N 4   s        0.00203   0.00172  -0.00063  -0.00745   0.00035   0.05635
 168  N 4   s        0.00184   0.00155  -0.00009  -0.00123   0.00009   0.00955
 169  N 4   s        0.00354   0.00297  -0.00124  -0.01161   0.00043   0.08956
 170  N 4   s        0.00267   0.00237  -0.02547  -0.31766   0.01457   2.38725
 171  N 4   px       0.05062  -0.04801   0.04459   0.02161   0.07934  -0.00695
 172  N 4   py       0.06711   0.01673   0.03684  -0.06948   0.04803   0.03961
 173  N 4   pz      -0.01943  -0.06726   0.00723   0.08385   0.03167   0.00576
 174  N 4   px       0.09657  -0.09161   0.08405   0.03477   0.13893   0.00708
 175  N 4   py       0.12810   0.03195   0.07032  -0.12275   0.08482   0.03926
 176  N 4   pz      -0.03705  -0.12831   0.01357   0.15370   0.05435  -0.00731
 177  N 4   px       0.13349  -0.12682   0.12325   0.10309   0.30724  -0.13924
 178  N 4   py       0.17706   0.04423   0.09558  -0.25394   0.17936   0.35317
 179  N 4   pz      -0.05122  -0.17760   0.02102   0.27482   0.13160   0.11934
 180  N 4   px       0.06801  -0.06510   0.12451   0.31178   0.86546  -0.39943
 181  N 4   py       0.08951   0.02254   0.06899  -0.58138   0.46868   1.37017
 182  N 4   pz      -0.02628  -0.09175   0.03422   0.62019   0.40954   0.27632
 183  N 4   d 1     -0.00066  -0.00251  -0.00014  -0.00251  -0.00149   0.00240
 184  N 4   d 2      0.00187  -0.00183  -0.00019  -0.00067  -0.00306  -0.00193
 185  N 4   d 3     -0.00022  -0.00059  -0.00004  -0.00141  -0.00105   0.00139
 186  N 4   d 4      0.00255   0.00069  -0.00007   0.00149  -0.00156  -0.00174
 187  N 4   d 5     -0.00073   0.00018  -0.00030  -0.00017   0.00185   0.00186
 188  N 4   d 1     -0.00395  -0.01502  -0.00018  -0.00780  -0.00637   0.00530
 189  N 4   d 2      0.01117  -0.01097   0.00145  -0.00351  -0.01214  -0.00284
 190  N 4   d 3     -0.00149  -0.00422  -0.00003  -0.00292  -0.00259   0.00372
 191  N 4   d 4      0.01525   0.00415   0.00177   0.00519  -0.00578  -0.01525
 192  N 4   d 5     -0.00503   0.00128  -0.00150  -0.00007   0.00432   0.00488
 193  N 4   d 1     -0.00510  -0.01971   0.00299   0.07716   0.04953  -0.15304
 194  N 4   d 2      0.01453  -0.01451  -0.01125   0.01356   0.09867   0.13330
 195  N 4   d 3     -0.00226  -0.00688   0.00356   0.07350   0.04738  -0.05694
 196  N 4   d 4      0.02001   0.00551  -0.01127  -0.02795   0.04754   0.01620
 197  N 4   d 5     -0.00775   0.00204   0.00043   0.01324  -0.08777  -0.07701
 198  N 4   f 1      0.00064   0.00083  -0.00063   0.00131   0.00207  -0.00105
 199  N 4   f 2     -0.00002  -0.00001   0.00001  -0.00002  -0.00000   0.00012
 200  N 4   f 3      0.00084  -0.00057   0.00069  -0.00115  -0.00294   0.00013
 201  N 4   f 4      0.00025   0.00107   0.00001   0.00026   0.00021   0.00049
 202  N 4   f 5      0.00104   0.00009   0.00073   0.00168  -0.00041  -0.00261
 203  N 4   f 6     -0.00101   0.00026  -0.00026  -0.00003   0.00280   0.00372
 204  N 4   f 7     -0.00016   0.00105   0.00071   0.00151   0.00013  -0.00264
 205  N 4   f 1      0.00177   0.00320  -0.00034  -0.00830  -0.01297   0.00769
 206  N 4   f 2     -0.00002  -0.00002   0.00003   0.00034  -0.00002  -0.00256
 207  N 4   f 3      0.00278  -0.00261  -0.00097   0.01020   0.01615   0.00244
 208  N 4   f 4      0.00080   0.00335   0.00020   0.00129  -0.00048  -0.00637
 209  N 4   f 5      0.00383   0.00093  -0.00173  -0.01139  -0.00037   0.01509
 210  N 4   f 6     -0.00421   0.00109   0.00321   0.00225  -0.02124  -0.02102
 211  N 4   f 7     -0.00002   0.00371  -0.00031  -0.00999  -0.00032   0.01964
 212  N 4   g 1     -0.00063   0.00018   0.00062  -0.00001   0.00011   0.00028
 213  N 4   g 2      0.00012   0.00021   0.00032  -0.00010  -0.00154  -0.00128
 214  N 4   g 3      0.00001   0.00004  -0.00003  -0.00106  -0.00078   0.00170
 215  N 4   g 4      0.00043   0.00045   0.00024   0.00061   0.00021   0.00048
 216  N 4   g 5      0.00016   0.00062   0.00000  -0.00085  -0.00094   0.00046
 217  N 4   g 6      0.00018  -0.00061   0.00015  -0.00033  -0.00027   0.00056
 218  N 4   g 7     -0.00096   0.00024   0.00086   0.00003  -0.00223  -0.00281
 219  N 4   g 8     -0.00000   0.00025  -0.00031  -0.00039   0.00088   0.00095
 220  N 4   g 9     -0.00019  -0.00073   0.00000   0.00122   0.00111  -0.00230
                        19        20        21        22        23        24
 eigenvalues:          0.194     0.196     0.351     0.414     0.415     0.417
   1  N 1   s        0.00089   0.00638   0.00189  -0.01893  -0.00111  -0.01922
   2  N 1   s       -0.01177  -0.08922  -0.05271  -0.04916  -0.00284  -0.04780
   3  N 1   s       -0.00147  -0.01283  -0.08014  -0.10333  -0.00603  -0.10387
   4  N 1   s       -0.02032  -0.14534   0.42201  -0.28177  -0.01573  -0.25151
   5  N 1   s       -0.52060  -3.90282   0.23577   4.33730   0.25194   4.28094
   6  N 1   px      -0.00945   0.05028  -0.01979   0.04135   0.00573   0.04162
   7  N 1   py       0.02191  -0.02263  -0.02015   0.04393   0.00078   0.03997
   8  N 1   pz      -0.00118   0.05484  -0.01945   0.03928   0.00079   0.04337
   9  N 1   px      -0.01247   0.05058  -0.02959   0.13305   0.05940   0.13263
  10  N 1   py       0.03247  -0.07286  -0.03005   0.16890  -0.01739   0.10418
  11  N 1   pz      -0.01481   0.05737  -0.02916   0.10297  -0.01844   0.16455
  12  N 1   px      -0.07912   0.42843  -0.26749  -0.12656  -0.29969  -0.13303
  13  N 1   py       0.12311   0.10797  -0.27106  -0.32381   0.13689   0.03757
  14  N 1   pz       0.09028   0.45866  -0.26395   0.03436   0.13860  -0.31882
  15  N 1   px      -0.51858   1.41245   0.59127  -1.49378  -0.31413  -1.47816
  16  N 1   py       0.39654   0.38630   0.59795  -1.66215   0.01402  -1.38453
  17  N 1   pz       0.57048   1.54895   0.58429  -1.33066   0.03822  -1.60897
  18  N 1   d 1     -0.00147  -0.00019  -0.00500   0.00071   0.00050  -0.00037
  19  N 1   d 2      0.00278   0.00041  -0.00493   0.00010  -0.00090   0.00018
  20  N 1   d 3      0.00162   0.00130   0.00013   0.00073   0.00065  -0.00084
  21  N 1   d 4     -0.00067   0.00421  -0.00487  -0.00053   0.00042   0.00061
  22  N 1   d 5     -0.00176   0.00172   0.00007   0.00048  -0.00112  -0.00046
  23  N 1   d 1     -0.01052  -0.01028   0.04519   0.00082   0.01370  -0.03387
  24  N 1   d 2      0.01299  -0.00773   0.04481  -0.01430  -0.03040  -0.01440
  25  N 1   d 3      0.00481   0.00265  -0.00086  -0.01746  -0.01487   0.01987
  26  N 1   d 4     -0.00395   0.00679   0.04445  -0.03358   0.01404   0.00402
  27  N 1   d 5     -0.00469   0.00360  -0.00049  -0.01237   0.02763   0.01167
  28  N 1   d 1      0.05928  -0.08874  -0.11425   0.37779   0.08695   0.22220
  29  N 1   d 2     -0.12960  -0.11180  -0.11442   0.29662  -0.11218   0.30505
  30  N 1   d 3     -0.06167  -0.05280   0.00211  -0.08375  -0.06648   0.07610
  31  N 1   d 4      0.01058  -0.24364  -0.11470   0.20937   0.07729   0.37080
  32  N 1   d 5      0.07211  -0.07340   0.00119  -0.05490   0.11374   0.04126
  33  N 1   f 1      0.00255  -0.00026  -0.00314   0.00152  -0.00125   0.00357
  34  N 1   f 2     -0.00006  -0.00027  -0.00172   0.00488   0.00028   0.00485
  35  N 1   f 3     -0.00358  -0.00082  -0.00240   0.00226   0.00249   0.00120
  36  N 1   f 4      0.00028   0.00114   0.00411  -0.00364  -0.00065  -0.00257
  37  N 1   f 5     -0.00098  -0.00325  -0.00243   0.00354  -0.00047  -0.00005
  38  N 1   f 6      0.00332  -0.00284   0.00002   0.00122  -0.00289  -0.00128
  39  N 1   f 7     -0.00084  -0.00121   0.00322  -0.00118   0.00046  -0.00403
  40  N 1   f 1     -0.01489   0.00627   0.01048  -0.02120  -0.02121  -0.01708
  41  N 1   f 2      0.00071   0.00461  -0.01186  -0.03253  -0.00198  -0.03531
  42  N 1   f 3      0.02135   0.00894   0.00825  -0.00329   0.01738  -0.02731
  43  N 1   f 4     -0.00312  -0.01197  -0.01408   0.02912   0.00498   0.02041
  44  N 1   f 5      0.00518   0.02421   0.00856   0.00223   0.00466  -0.03154
  45  N 1   f 6     -0.01992   0.01909   0.00011   0.01193  -0.02599  -0.00953
  46  N 1   f 7      0.00394   0.00490  -0.01071   0.03360  -0.00492   0.00693
  47  N 1   g 1      0.00009  -0.00023  -0.00001  -0.00086   0.00171   0.00076
  48  N 1   g 2      0.00185   0.00033   0.00241  -0.00128   0.00684   0.00024
  49  N 1   g 3     -0.00113   0.00004   0.00246  -0.00474  -0.00364   0.00443
  50  N 1   g 4     -0.00053  -0.00036  -0.00094  -0.00097  -0.00236   0.00133
  51  N 1   g 5      0.00200   0.00264   0.00044   0.00014   0.00209  -0.00515
  52  N 1   g 6      0.00013  -0.00090  -0.00097  -0.00188  -0.00019   0.00217
  53  N 1   g 7      0.00264  -0.00231  -0.00002  -0.00238   0.00555   0.00212
  54  N 1   g 8      0.00036  -0.00254  -0.00253  -0.00354   0.00398   0.00411
  55  N 1   g 9     -0.00198  -0.00026   0.00032  -0.00494  -0.00276   0.00113
  56  N 2   s        0.00579   0.00092   0.00177   0.02144   0.01331  -0.00965
  57  N 2   s       -0.08639  -0.01141  -0.05340   0.05425   0.03373  -0.02364
  58  N 2   s       -0.01533  -0.00111  -0.08089   0.11546   0.07197  -0.05171
  59  N 2   s       -0.13406  -0.02038   0.41225   0.31166   0.18738  -0.12470
  60  N 2   s       -3.65462  -0.51970   0.29269  -4.86994  -3.00780   2.13965
  61  N 2   px      -0.02588  -0.01569   0.01932   0.04624   0.03114  -0.01927
  62  N 2   py      -0.00712  -0.00393   0.01926   0.04944   0.02607  -0.02045
  63  N 2   pz       0.04739  -0.00832  -0.01935  -0.04600  -0.03017   0.02320
  64  N 2   px      -0.00743  -0.03104   0.02775   0.14602   0.12865  -0.03035
  65  N 2   py       0.01510  -0.00242   0.02740   0.18230   0.05161  -0.05903
  66  N 2   pz       0.04625  -0.02813  -0.02788  -0.12903  -0.10174   0.11109
  67  N 2   px      -0.33844  -0.02213   0.26787  -0.12443  -0.29422  -0.14721
  68  N 2   py      -0.18135  -0.04220   0.27081  -0.31573   0.13910   0.02375
  69  N 2   pz       0.41391   0.06947  -0.26940   0.01999   0.13188  -0.32296
  70  N 2   px      -1.26446   0.21990  -0.57048  -1.66154  -1.19578   0.58187
  71  N 2   py      -0.45301  -0.12297  -0.56978  -1.83370  -0.85439   0.70867
  72  N 2   pz       1.42427   0.53906   0.57507   1.57554   1.07810  -0.94799
  73  N 2   d 1     -0.00010  -0.00133  -0.00492  -0.00067  -0.00000  -0.00071
  74  N 2   d 2     -0.00046  -0.00165   0.00495   0.00022  -0.00051  -0.00076
  75  N 2   d 3      0.00114   0.00163  -0.00000  -0.00056   0.00018  -0.00109
  76  N 2   d 4     -0.00356  -0.00029   0.00496  -0.00035   0.00083  -0.00024
  77  N 2   d 5      0.00163  -0.00086   0.00004  -0.00049   0.00109   0.00043
  78  N 2   d 1     -0.00950  -0.01023   0.04435   0.00471   0.01458  -0.03305
  79  N 2   d 2      0.00830  -0.00839  -0.04484  -0.01436  -0.03071  -0.01348
  80  N 2   d 3      0.00261   0.00495   0.00019   0.01388  -0.00391   0.02683
  81  N 2   d 4     -0.00761  -0.00010  -0.04452  -0.03364   0.01318   0.00371
  82  N 2   d 5      0.00450  -0.00243  -0.00040   0.01176  -0.02681  -0.01033
  83  N 2   d 1     -0.08524   0.05896  -0.10860  -0.39618  -0.18942   0.03502
  84  N 2   d 2      0.09909   0.09333   0.11108   0.34816   0.12024  -0.24262
  85  N 2   d 3     -0.04821  -0.06191  -0.00098   0.06174  -0.01956   0.11748
  86  N 2   d 4      0.23051   0.02329   0.11173   0.26110   0.31248  -0.16910
  87  N 2   d 5     -0.06479   0.03140   0.00026   0.05552  -0.11454  -0.04399
  88  N 2   f 1      0.00038  -0.00195   0.00310   0.00199   0.00161  -0.00312
  89  N 2   f 2     -0.00019   0.00001  -0.00164  -0.00543  -0.00338   0.00247
  90  N 2   f 3      0.00067   0.00273   0.00249   0.00236   0.00259   0.00131
  91  N 2   f 4      0.00101   0.00016   0.00399   0.00390   0.00202  -0.00082
  92  N 2   f 5      0.00309   0.00184   0.00245   0.00366  -0.00037   0.00013
  93  N 2   f 6     -0.00316   0.00197   0.00002  -0.00114   0.00277   0.00112
  94  N 2   f 7      0.00119   0.00136  -0.00319  -0.00180  -0.00232   0.00290
  95  N 2   f 1     -0.00612   0.01185  -0.01037  -0.02165  -0.02479  -0.00635
  96  N 2   f 2      0.00407   0.00042  -0.01239   0.03756   0.02360  -0.01723
  97  N 2   f 3     -0.00710  -0.01774  -0.00835  -0.00921  -0.00740   0.03048
  98  N 2   f 4     -0.01081  -0.00260  -0.01342  -0.03177  -0.01590   0.00493
  99  N 2   f 5     -0.02280  -0.00894  -0.00828  -0.00346  -0.02052   0.02556
 100  N 2   f 6      0.01843  -0.00960   0.00018  -0.01220   0.02622   0.00989
 101  N 2   f 7     -0.00375  -0.00679   0.01058   0.03447  -0.00120  -0.00379
 102  N 2   g 1     -0.00010   0.00016   0.00001   0.00086  -0.00165  -0.00063
 103  N 2   g 2     -0.00029  -0.00127  -0.00241  -0.00152   0.00477   0.00466
 104  N 2   g 3      0.00016  -0.00117   0.00258   0.00374  -0.00072   0.00614
 105  N 2   g 4      0.00017   0.00070   0.00093  -0.00068  -0.00066  -0.00302
 106  N 2   g 5      0.00237   0.00203   0.00039   0.00080   0.00225  -0.00484
 107  N 2   g 6      0.00100  -0.00016   0.00093  -0.00167   0.00162  -0.00214
 108  N 2   g 7     -0.00254   0.00148  -0.00003   0.00249  -0.00561  -0.00217
 109  N 2   g 8      0.00231   0.00030   0.00250  -0.00331   0.00593  -0.00055
 110  N 2   g 9     -0.00014  -0.00200   0.00035   0.00459   0.00072   0.00329
 111  N 3   s        0.00104  -0.00655   0.00199  -0.00957   0.01288   0.02172
 112  N 3   s       -0.01507   0.09218  -0.05203  -0.02521   0.03284   0.05541
 113  N 3   s       -0.00230   0.01305  -0.07947  -0.05271   0.07027   0.11886
 114  N 3   s       -0.02460   0.15094   0.43157  -0.14342   0.17880   0.29182
 115  N 3   s       -0.64678   4.03829   0.18210   2.20054  -2.90801  -4.87796
 116  N 3   px      -0.02193   0.05266   0.02026  -0.01786   0.03047   0.04721
 117  N 3   py      -0.00919   0.02249  -0.02023   0.02446  -0.02778  -0.04505
 118  N 3   pz      -0.00071   0.05319   0.02031  -0.02041   0.02567   0.04832
 119  N 3   px      -0.02510   0.05362   0.03137  -0.03052   0.12658   0.14816
 120  N 3   py      -0.02427   0.07345  -0.03125   0.11453  -0.09595  -0.12693
 121  N 3   pz      -0.00457   0.05306   0.03169  -0.06047   0.04899   0.17958
 122  N 3   px      -0.18135   0.44560   0.26729  -0.13472  -0.29598  -0.13316
 123  N 3   py       0.01918  -0.11589  -0.26563  -0.32739   0.13250   0.02037
 124  N 3   pz       0.03607   0.46038   0.26440   0.02637   0.14575  -0.32498
 125  N 3   px      -0.79314   1.45465  -0.61083   0.59423  -1.16486  -1.67319
 126  N 3   py       0.16361  -0.42003   0.60636  -0.95245   1.02986   1.59167
 127  N 3   pz       0.40657   1.56130  -0.61128   0.72496  -0.82639  -1.79836
 128  N 3   d 1     -0.00254  -0.00009   0.00491  -0.00015   0.00081  -0.00040
 129  N 3   d 2      0.00209   0.00036   0.00492  -0.00067  -0.00057   0.00022
 130  N 3   d 3     -0.00220  -0.00120   0.00003   0.00023  -0.00108   0.00075
 131  N 3   d 4      0.00025  -0.00415  -0.00495  -0.00076   0.00007  -0.00045
 132  N 3   d 5      0.00112  -0.00167  -0.00002   0.00123   0.00045   0.00032
 133  N 3   d 1     -0.01187  -0.01044  -0.04510   0.00253   0.01398  -0.03406
 134  N 3   d 2      0.01240  -0.00783  -0.04479  -0.01389  -0.03074  -0.01453
 135  N 3   d 3     -0.00624  -0.00266  -0.00026  -0.00513   0.02590  -0.01813
 136  N 3   d 4     -0.00154  -0.00613   0.04529  -0.03399   0.01388   0.00217
 137  N 3   d 5      0.00282  -0.00321   0.00037  -0.02949  -0.01022  -0.00736
 138  N 3   d 1      0.12644  -0.09317   0.11704  -0.16961   0.30610   0.26540
 139  N 3   d 2     -0.07207  -0.11301   0.11770  -0.24341   0.10970   0.34846
 140  N 3   d 3      0.08586   0.05122  -0.00014  -0.01986   0.10544  -0.06896
 141  N 3   d 4     -0.01845   0.24559  -0.12006   0.03715  -0.18514  -0.39643
 142  N 3   d 5     -0.04735   0.07369  -0.00099  -0.11949  -0.04455  -0.03084
 143  N 3   f 1     -0.00290   0.00023  -0.00324   0.00128   0.00014  -0.00389
 144  N 3   f 2     -0.00003   0.00017  -0.00180   0.00243  -0.00330  -0.00558
 145  N 3   f 3      0.00354   0.00080  -0.00248  -0.00028  -0.00350  -0.00134
 146  N 3   f 4     -0.00003   0.00114  -0.00409   0.00171  -0.00275  -0.00306
 147  N 3   f 5     -0.00196  -0.00317   0.00246  -0.00285   0.00236   0.00052
 148  N 3   f 6      0.00213  -0.00276   0.00007  -0.00305  -0.00103  -0.00076
 149  N 3   f 7     -0.00192  -0.00111  -0.00320   0.00046  -0.00008  -0.00404
 150  N 3   f 1      0.01870  -0.00652   0.01095   0.00175   0.02888   0.01856
 151  N 3   f 2      0.00065  -0.00378  -0.01134  -0.01690   0.02293   0.03916
 152  N 3   f 3     -0.02070  -0.00854   0.00871  -0.01143  -0.01118   0.02812
 153  N 3   f 4      0.00051  -0.01207   0.01410  -0.01379   0.02317   0.02402
 154  N 3   f 5      0.01019   0.02364  -0.00858  -0.00338   0.00596  -0.03127
 155  N 3   f 6     -0.01266   0.01875  -0.00024  -0.02820  -0.01029  -0.00707
 156  N 3   f 7      0.01151   0.00415   0.01100  -0.02554   0.01867   0.01136
 157  N 3   g 1      0.00015  -0.00020  -0.00001   0.00170   0.00065   0.00043
 158  N 3   g 2      0.00128   0.00051  -0.00242   0.00543   0.00413  -0.00053
 159  N 3   g 3     -0.00186   0.00029  -0.00250   0.00130  -0.00617   0.00368
 160  N 3   g 4     -0.00053  -0.00038   0.00093  -0.00089  -0.00262   0.00136
 161  N 3   g 5     -0.00204  -0.00259   0.00044  -0.00053  -0.00181   0.00509
 162  N 3   g 6     -0.00001   0.00089  -0.00091  -0.00161   0.00177  -0.00190
 163  N 3   g 7     -0.00165   0.00223   0.00003  -0.00608  -0.00219  -0.00146
 164  N 3   g 8     -0.00007   0.00252  -0.00243  -0.00604   0.00003  -0.00337
 165  N 3   g 9      0.00289   0.00013   0.00035  -0.00185   0.00544  -0.00054
 166  N 4   s       -0.00762  -0.00059   0.00188   0.00733  -0.02508   0.00688
 167  N 4   s        0.11362   0.00904  -0.05273   0.01823  -0.06375   0.01787
 168  N 4   s        0.01960   0.00166  -0.08020   0.03937  -0.13620   0.03777
 169  N 4   s        0.17822   0.01350   0.42185   0.10294  -0.35055   0.09613
 170  N 4   s        4.82277   0.38540   0.23785  -1.65212   5.66403  -1.55848
 171  N 4   px      -0.03819  -0.01297  -0.01979  -0.01307   0.05589  -0.01363
 172  N 4   py       0.01988   0.00235   0.01972   0.02048  -0.05404   0.01436
 173  N 4   pz       0.04711  -0.00696   0.01983   0.01474  -0.05405   0.01667
 174  N 4   px      -0.01982  -0.02745  -0.02957  -0.01670   0.19584  -0.01576
 175  N 4   py      -0.00672   0.00119   0.02919   0.10224  -0.16677   0.03478
 176  N 4   pz       0.03648  -0.02471   0.02986   0.03600  -0.16729   0.09489
 177  N 4   px      -0.44014  -0.00421  -0.26758  -0.13490  -0.29051  -0.14557
 178  N 4   py       0.32417   0.02536   0.27052  -0.32094   0.12505   0.03129
 179  N 4   pz       0.46703   0.06789   0.26469   0.03164   0.13011  -0.33147
 180  N 4   px      -1.53680   0.26520   0.59061   0.41722  -2.04673   0.39766
 181  N 4   py       1.01205   0.06493  -0.58986  -0.80635   1.92536  -0.48065
 182  N 4   pz       1.58858   0.53213  -0.59101  -0.50299   1.91467  -0.73261
 183  N 4   d 1      0.00095  -0.00155   0.00492   0.00030  -0.00030  -0.00083
 184  N 4   d 2     -0.00113  -0.00163  -0.00493  -0.00066  -0.00018  -0.00062
 185  N 4   d 3     -0.00061  -0.00173   0.00006  -0.00037   0.00025   0.00122
 186  N 4   d 4      0.00313   0.00032   0.00494  -0.00079  -0.00035   0.00031
 187  N 4   d 5     -0.00099   0.00082   0.00004  -0.00120  -0.00042  -0.00027
 188  N 4   d 1     -0.00823  -0.01026  -0.04513   0.00226   0.01490  -0.03354
 189  N 4   d 2      0.00768  -0.00856   0.04481  -0.01304  -0.03101  -0.01440
 190  N 4   d 3     -0.00181  -0.00496  -0.00070   0.00903  -0.00521  -0.02990
 191  N 4   d 4      0.00222   0.00079  -0.04449  -0.03344   0.01412   0.00318
 192  N 4   d 5     -0.00273   0.00239  -0.00040   0.02848   0.01048   0.00708
 193  N 4   d 1     -0.15265   0.06821   0.11371   0.15162  -0.41303  -0.01328
 194  N 4   d 2      0.15576   0.08872  -0.11429  -0.20011   0.34199  -0.19123
 195  N 4   d 3      0.02491   0.06493   0.00057   0.04097  -0.02700  -0.11895
 196  N 4   d 4     -0.23717  -0.02297   0.11502  -0.00931  -0.41572   0.14328
 197  N 4   d 5      0.04017  -0.03090   0.00027   0.12539   0.04110   0.02943
 198  N 4   f 1     -0.00072   0.00206   0.00320   0.00072  -0.00269   0.00297
 199  N 4   f 2      0.00026   0.00004  -0.00172  -0.00187   0.00639  -0.00175
 200  N 4   f 3     -0.00079  -0.00273   0.00237  -0.00026  -0.00331  -0.00165
 201  N 4   f 4      0.00126   0.00020  -0.00408  -0.00145   0.00431  -0.00034
 202  N 4   f 5      0.00218   0.00198  -0.00243  -0.00280   0.00224   0.00094
 203  N 4   f 6     -0.00200   0.00190  -0.00008   0.00286   0.00112   0.00075
 204  N 4   f 7      0.00014   0.00150   0.00322   0.00009  -0.00303   0.00277
 205  N 4   f 1      0.00992  -0.01290  -0.01085   0.00292   0.03253   0.00825
 206  N 4   f 2     -0.00521  -0.00042  -0.01187   0.01282  -0.04454   0.01240
 207  N 4   f 3      0.00794   0.01784  -0.00814  -0.00598   0.01260  -0.02820
[...]
   211   -2.919962096552e-02
   212    1.484448232022e-02
   213    8.025876743789e-03
   214   -7.102545059954e-03
   215    6.351611632648e-05
   216   -2.222251954742e-02
   217    2.093843379623e-02
   218    2.117127127874e-02
   219    1.278624796176e-02
   220    1.074001577555e-04
Sym=X
Ene= 32.803379
Spin=Alpha
Occup=0
     1    2.300677123966e+00
     2    2.512181199694e+00
     3    1.019748933379e+00
     4   -1.538888502844e+00
     5   -7.521135894014e-01
     6    1.677692126448e-02
     7    1.501132689630e-02
     8    7.278521282373e-03
     9   -5.338884943970e-02
    10   -9.214626454375e-02
    11   -2.063016957392e-01
    12    5.249502560833e-02
    13    4.008024607556e-01
    14    1.504826278302e+00
    15    2.099840307090e-02
    16    9.665399159145e-02
    17    3.354666229193e-01
    18    6.954207243266e-02
    19    5.703260230590e-02
    20    9.350357363506e-02
    21   -1.672146226893e-02
    22   -5.913445994130e-02
    23   -2.409345777141e-01
    24   -1.757193338239e-01
    25   -2.943696791562e-01
    26    5.683009242455e-02
    27    2.074896784747e-01
    28   -3.402493035467e-01
    29   -2.790149677688e-01
    30   -4.407866004073e-01
    31    8.140581064319e-02
    32    2.393156305282e-01
    33    5.843623475175e-03
    34    1.336147165827e-02
    35    1.584597595540e-02
    36   -4.445574219351e-03
    37    4.149273363857e-03
    38    7.625084603305e-03
    39   -1.183102640987e-02
    40   -8.757391461268e-02
    41    1.454105490646e-01
    42    2.041466751363e-01
    43   -6.063501336937e-02
    44   -9.557140247904e-03
    45    1.248835975900e-01
    46   -1.427856887515e-01
    47    3.138001823666e-02
    48   -1.125242343361e-03
    49   -4.362919802427e-03
    50    7.878166610000e-03
    51   -1.509242924936e-03
    52   -2.120721386507e-02
    53    2.691376006133e-02
    54   -1.766930672041e-02
    55   -1.581250724546e-03
    56    8.077777641716e+00
    57    8.819186755222e+00
    58    3.512525606149e+00
    59   -5.148415828328e+00
    60   -2.493690313571e+00
    61   -5.086550638785e-02
    62   -5.369570239443e-02
    63    4.759137508881e-02
    64    4.101639961639e-01
    65    3.756255901635e-01
    66   -4.727915438448e-01
    67   -2.101238255629e+00
    68   -1.753393054961e+00
    69    2.685964214264e+00
    70   -4.859295018609e-01
    71   -4.115147380682e-01
    72    6.132598128845e-01
    73    4.132493775202e-02
    74   -1.472547987871e-01
    75   -1.109101968056e-01
    76    1.628492004958e-02
    77    5.087152740909e-02
    78   -1.432377148732e-01
    79    4.296804568397e-01
    80    3.091622184484e-01
    81   -5.752707969061e-02
    82   -1.121174978191e-01
    83   -2.027868197914e-01
    84    7.356213797707e-01
    85    5.729044826412e-01
    86   -7.927100541590e-02
    87   -3.038320091085e-01
    88    9.146952307890e-03
    89   -6.466969764799e-03
    90   -3.878602621026e-03
    91    5.030803985495e-03
    92    1.078675364592e-02
    93   -1.230285247212e-02
    94    7.132379548735e-03
    95   -1.351006120277e-01
    96   -1.849737300094e-01
    97   -1.241338950561e-01
    98    5.968238937504e-02
    99   -3.807360074668e-02
   100   -1.761918306065e-02
   101    8.419070506130e-04
   102    4.711739654356e-02
   103    1.942428708137e-02
   104    1.590805403849e-02
   105   -7.661983267259e-03
   106    4.594624280699e-02
   107    5.947578415737e-02
   108   -5.360832876792e-02
   109    1.494346746597e-02
   110    2.171471293767e-03
   111   -3.444393258871e+00
   112   -3.760527905677e+00
   113   -1.499717669920e+00
   114    2.208369537850e+00
   115    1.069855154197e+00
   116    2.650062356569e-02
   117   -2.262219983099e-02
   118    1.531502698587e-02
   119   -1.100854926039e-01
   120    1.658124575128e-01
   121   -2.578516065660e-01
   122    2.624869253459e-01
   123   -8.010805017357e-01
   124    1.727824989600e+00
   125    7.041636003794e-02
   126   -1.865084986309e-01
   127    3.867861535999e-01
   128   -6.507177506481e-02
   129   -5.624195606350e-02
   130    1.126078232863e-01
   131    2.605121991000e-02
   132   -3.885842765130e-02
   133    2.280129694923e-01
   134    1.634082415841e-01
   135   -3.493390708180e-01
   136   -9.035672941739e-02
   137    1.541300177337e-01
   138    3.191465174458e-01
   139    2.851881888346e-01
   140   -5.354832300465e-01
   141   -1.269510145576e-01
   142    1.413903590090e-01
   143    6.991389040390e-03
   144    1.149449735458e-02
   145   -1.566737793663e-02
   146   -7.646974699512e-03
   147   -4.581254536585e-03
   148    7.281802695263e-03
   149    1.462622056245e-02
   150   -9.282121527083e-02
   151    1.226339222824e-01
   152   -2.173094529907e-01
   153   -9.315850052444e-02
   154    1.958314004331e-02
   155    9.262020753803e-02
   156    1.244744095401e-01
   157   -3.352510945959e-02
   158    3.026800866401e-03
   159   -9.413285297995e-03
   160   -1.227323162813e-02
   161    9.667008313737e-03
   162    2.617627724327e-02
   163    3.567461879905e-02
   164    9.590622857991e-03
   165   -1.779954586531e-03
   166   -7.066531971274e+00
   167   -7.715010213311e+00
   168   -3.068639667423e+00
   169    4.494438140763e+00
   170    2.175058709988e+00
   171   -4.469378502768e-02
   172    4.901598736181e-02
   173    4.025220320679e-02
   174    3.666417031130e-01
   175   -3.116590555257e-01
   176   -4.224044506017e-01
   177   -1.897938652484e+00
   178    1.347728371301e+00
   179    2.454521763924e+00
   180   -4.375239223359e-01
   181    3.196701134928e-01
   182    5.579065810537e-01
   183   -4.494894215140e-02
   184    1.473595221756e-01
   185   -8.982009067555e-02
   186   -2.564851954838e-02
   187    3.147429577031e-02
   188    1.578640661467e-01
   189   -4.378001550119e-01
   190    2.468679505419e-01
   191    9.040607435200e-02
   192   -5.315619635678e-02
   193    2.195760081564e-01
   194   -7.253796534826e-01
   195    4.679175850047e-01
   196    1.255387242575e-01
   197   -2.075347088848e-01
   198    8.734532532298e-03
   199   -9.225594368626e-03
   200    5.271407023021e-03
   201    8.233882682389e-03
   202   -9.257786132591e-03
   203   -1.417258121958e-02
   204   -6.451933848401e-03
   205   -1.274488320875e-01
   206   -2.053226837833e-01
   207    1.057990785506e-01
   208    9.234536396328e-02
   209    3.505360048405e-02
   210   -4.545613295952e-02
   211   -1.656327272205e-02
   212   -4.410769242491e-02
   213   -1.899380455920e-02
   214    1.134394363581e-02
   215    1.213057463191e-02
   216    3.800664701695e-02
   217   -5.594506291386e-02
   218   -4.767804078230e-02
   219   -9.649550873627e-03
   220    1.998122351968e-03
Sym=X
Ene= 32.808823
Spin=Alpha
Occup=0
     1    9.354620840881e+00
     2    1.021335604755e+01
     3    4.067229505317e+00
     4   -5.963348199012e+00
     5   -2.882883481799e+00
     6    5.651763451706e-02
     7    6.177880626647e-02
     8    5.836816930505e-02
     9   -5.174088247993e-01
    10   -4.755340894700e-01
    11   -4.641316423384e-01
    12    2.835183828867e+00
    13    2.355651756836e+00
    14    2.372893256563e+00
    15    6.487359834285e-01
    16    5.460515817750e-01
    17    5.485090075174e-01
    18   -1.369092572912e-02
    19    1.363024226592e-01
    20    8.651138994446e-02
    21    2.199982208502e-02
    22    1.335688384294e-01
    23    4.253236282756e-02
    24   -3.888518122456e-01
    25   -2.196644070923e-01
    26   -7.999782212043e-02
    27   -3.721370997507e-01
    28    6.520869339261e-02
    29   -6.998442221437e-01
    30   -4.749477896485e-01
    31   -1.086908641773e-01
    32   -6.833284456173e-01
    33    6.539399518946e-03
    34   -3.883455693208e-03
    35   -8.032217544474e-03
    36    7.686246186654e-03
    37    1.271655966616e-02
    38    8.145621252896e-03
    39   -8.736636171773e-04
    40   -1.148541317009e-01
    41    8.820066579053e-02
    42    3.537074966892e-03
    43    8.271855270864e-02
    44   -4.705678274750e-02
    45   -1.057738136111e-01
    46    1.288704805757e-01
    47    3.751710380080e-02
    48   -2.518036581350e-02
    49   -1.945544366193e-02
    50   -1.038235735287e-02
    51    6.593318601607e-02
    52   -6.369877052223e-02
    53    5.523115903960e-02
    54    3.774559428768e-02
    55    2.617129805563e-03
    56   -4.627352460066e+00
    57   -5.051853949706e+00
    58   -1.995126752855e+00
    59    2.884824296389e+00
    60    1.388886676826e+00
    61    2.620666901172e-02
    62    2.993368383407e-02
    63   -3.486102127396e-02
    64   -3.066590339304e-01
    65   -2.589690667571e-01
    66    1.635940678623e-01
    67    1.832207680747e+00
    68    1.358017173220e+00
    69   -4.885037269212e-01
    70    4.135463880524e-01
    71    3.112087453259e-01
    72   -1.225246396341e-01
    73    6.283767569985e-02
    74    4.566608698854e-02
    75   -4.628282516661e-03
    76   -2.195205004777e-02
    77   -1.365793600663e-01
    78   -2.150795307502e-01
    79   -1.174625042489e-01
    80    4.920153961079e-02
    81    7.702111688789e-02
    82    4.131854676251e-01
    83   -3.048279575456e-01
    84   -2.476828879495e-01
    85   -2.332723000662e-02
    86    1.072939824679e-01
    87    6.496746724222e-01
    88    6.203340199134e-04
    89   -1.309947760754e-02
    90   -1.697478304709e-02
    91   -6.633474284144e-03
    92   -5.845711568238e-03
    93   -8.699886703259e-04
    94    7.286369370082e-03
    95    1.719488923144e-02
    96   -6.178759920215e-02
    97   -1.462978079129e-01
    98   -8.267243752288e-02
    99    1.709829582015e-02
   100   -1.728885924221e-01
   101    1.943721822078e-01
   102   -1.028055128276e-03
   103   -1.437361066889e-02
   104   -9.505096012758e-03
   105    1.058986172406e-02
   106   -4.715562000737e-02
   107   -2.459195761297e-02
   108    1.672213912828e-02
   109   -3.973134610508e-02
   110   -2.775527802135e-03
   111   -4.840608249070e+00
   112   -5.285234760842e+00
   113   -2.121042042941e+00
   114    3.150182179850e+00
   115    1.528233411445e+00
   116    2.420419357392e-02
   117   -3.614352097413e-02
   118    2.757910015511e-02
   119   -3.091437255902e-01
   120    1.749575208290e-01
   121   -2.614325835778e-01
   122    1.945876576010e+00
   123   -5.504502063256e-01
   124    1.477487509104e+00
   125    4.388635617663e-01
   126   -1.394271839005e-01
   127    3.379958501238e-01
   128   -1.099343644219e-02
   129   -1.391835036976e-01
   130   -1.510553798031e-03
   131   -6.493979914277e-02
   132    4.515775140278e-02
   133    4.086978118768e-02
   134    4.340222921014e-01
   135    3.972850704653e-02
   136    2.304495544516e-01
   137   -1.155230086563e-01
   138    5.501600231741e-02
   139    6.727367420222e-01
   140   -3.824317938655e-02
   141    3.198751489990e-01
   142   -2.474445263803e-01
   143    4.075913963752e-03
   144    7.542165620847e-03
   145    4.876457055352e-03
   146    2.136049657008e-02
   147   -6.916019334519e-03
   148    1.448247628344e-02
   149   -4.925510081212e-03
   150   -7.345558906920e-02
   151    1.755057682110e-01
   152    5.294394177897e-02
   153    2.272152126382e-01
   154    3.079941877397e-02
   155    1.536132752713e-02
   156   -5.605056577277e-02
   157   -2.379036306415e-02
   158    1.706605523333e-02
   159   -4.551031016189e-03
   160    2.612084692529e-02
   161    3.177089380866e-02
   162    4.253122474137e-02
   163    2.337945636867e-02
   164   -1.413051117208e-02
   165    5.937931422312e-03
   166    1.108197238258e-01
   167    1.209955718143e-01
   168    4.833595485506e-02
   169   -7.120133618077e-02
   170   -3.434457634449e-02
   171   -6.154854602987e-03
   172   -4.033449792515e-03
   173   -4.173701030691e-03
   174   -9.829529902076e-02
   175   -3.991773586481e-02
   176   -4.118588345101e-02
   177    9.429024653026e-01
   178    4.205622993573e-01
   179    4.320242229402e-01
   180    2.037465302424e-01
   181    8.977723957323e-02
   182    9.319803445385e-02
   183   -3.739875763129e-02
   184   -4.681436499559e-02
   185   -9.260163803427e-02
   186    6.536790578371e-02
   187   -5.003869519757e-02
   188    1.304681258881e-01
   189    1.547019065264e-01
   190    3.081263519168e-01
   191   -2.282254990472e-01
   192    1.652185774903e-01
   193    1.832621464565e-01
   194    2.109683336513e-01
   195    4.129696980753e-01
   196   -3.193702544729e-01
   197    2.241722442745e-01
   198    2.228943771910e-03
   199   -3.206474621503e-03
   200    1.385821535819e-02
   201   -1.946552315080e-02
   202    1.665883400357e-04
   203    4.238122887472e-03
   204   -1.433897887301e-02
   205   -3.021496862566e-02
   206    3.019147480048e-02
   207    1.970031178225e-01
   208   -2.300889945008e-01
   209   -5.860126861765e-04
   210   -4.800959377214e-02
   211   -1.248703032127e-01
   212   -1.078732292780e-02
   213    8.197815522591e-03
   214    4.942617659130e-03
   215   -2.810316849845e-02
   216   -9.402457493868e-03
   217    6.525678179446e-03
   218   -1.537235294107e-02
   219    1.375252830201e-02
   220   -5.325053429664e-03
Sym=X
Ene= 32.816158
Spin=Alpha
Occup=0
     1    2.545304032934e+00
     2    2.778680285284e+00
     3    1.087163917859e+00
     4   -1.548954029975e+00
     5   -7.409998066861e-01
     6    2.284946669343e-02
     7    1.037682814603e-02
     8    1.934349050124e-02
     9   -7.549179317061e-02
    10   -2.202416671479e-01
    11   -1.077897547772e-01
    12    4.106010004315e-02
    13    1.523944086151e+00
    14    3.937613943942e-01
    15    1.864081784125e-02
    16    3.369967169356e-01
    17    9.419597458671e-02
    18   -2.186067631451e-02
    19   -5.675976189212e-02
    20    9.288797110826e-02
    21   -7.119867122764e-02
    22    5.711981510569e-02
    23    7.588499905341e-02
    24    2.123074629846e-01
    25   -2.891973035794e-01
    26    2.509350918199e-01
    27   -1.681466232162e-01
    28    1.065372583045e-01
    29    2.333753317119e-01
    30   -4.382006740048e-01
    31    3.481338205659e-01
    32   -2.770400629159e-01
    33    1.083427338320e-03
    34   -1.249657654467e-02
    35   -2.846140746171e-04
    36   -2.222881213778e-02
    37    2.384287752690e-03
    38   -1.116870647051e-02
    39   -9.504993459431e-03
    40   -1.870703185795e-02
    41   -1.478933757481e-01
    42    9.336803155333e-02
    43   -2.465233622685e-01
    44   -1.476591510129e-02
    45   -1.121563653896e-01
    46    2.614286627754e-02
    47    6.030074465806e-03
    48    6.343545111891e-05
    49   -1.336367410840e-02
    50    2.812683504311e-02
    51    2.239148211724e-02
    52   -3.373308710966e-03
    53    2.591411020779e-02
    54    1.594660165635e-02
    55   -5.019278267147e-03
    56   -3.435966983807e+00
    57   -3.751460781068e+00
    58   -1.491726709520e+00
    59    2.176798723671e+00
    60    1.050280238979e+00
    61    2.694308897938e-02
    62    1.610942121868e-02
    63   -2.257168829278e-02
    64   -1.110026866876e-01
    65   -2.609279185724e-01
    66    1.664591454967e-01
    67    2.470629868014e-01
    68    1.718083882863e+00
    69   -8.053487034599e-01
    70    6.703731725700e-02
    71    3.837820646893e-01
    72   -1.874460413376e-01
    73    1.042567444805e-02
    74   -3.774334435557e-02
    75    1.132498526192e-01
    76    7.047397205203e-02
    77   -5.660557119667e-02
    78   -3.544742500373e-02
    79    1.499061400528e-01
    80   -3.506425909986e-01
    81   -2.455694878468e-01
    82    1.614334682503e-01
    83   -5.017842840186e-02
    84    1.363748191486e-01
    85   -5.391486371646e-01
    86   -3.439078740794e-01
    87    2.842047739932e-01
    88   -1.777351722006e-03
    89   -9.323589593259e-03
    90    1.939823950661e-03
    91    2.073042759055e-02
    92   -4.728712152076e-03
    93   -8.813247773990e-03
    94   -1.072707164413e-02
    95    3.785366256672e-02
    96   -1.212486882917e-01
    97    1.282426782158e-01
    98    2.476828730420e-01
    99    1.512644513768e-02
   100   -9.960543886522e-02
   101    1.525865704949e-02
   102   -1.170393225860e-02
   103   -5.653826926251e-04
   104   -1.569431686091e-02
   105   -3.015776774346e-02
   106   -2.635373684223e-02
   107   -8.604575603559e-03
   108    3.199907978479e-02
   109   -1.656030002166e-02
   110    5.026889235933e-03
   111    8.049516093122e+00
   112    8.788628529302e+00
   113    3.499428984897e+00
   114   -5.130017555027e+00
   115   -2.475869219590e+00
   116   -5.185635793844e-02
   117    4.650933994736e-02
   118   -5.426809340150e-02
   119    4.127651051976e-01
   120   -4.654374880909e-01
   121    3.762349984147e-01
   122   -2.098047763668e+00
   123    2.653342758923e+00
   124   -1.745190153341e+00
   125   -4.841858172741e-01
   126    6.026589491672e-01
   127   -4.075012190247e-01
   128   -3.511794495436e-02
   129    5.162140020396e-02
   130   -1.089726557587e-01
   131   -2.663454164637e-02
   132   -1.447725573734e-01
   133    1.225527586589e-01
   134   -1.114185967468e-01
   135    3.042341715664e-01
   136    9.432715673751e-02
   137    4.232161448105e-01
   138    1.716746058207e-01
   139   -3.061812433470e-01
   140    5.620782071965e-01
   141    1.294560396147e-01
   142    7.219262882067e-01
   143   -3.988979954854e-03
   144    1.422199309189e-02
   145   -9.236636757200e-03
   146    8.939748930401e-03
   147    1.108245798596e-02
   148    4.100604709864e-03
   149   -3.743801367641e-03
   150    7.859457637244e-02
   151    6.224266718124e-02
   152    3.314584517212e-02
   153    9.372767044844e-02
   154   -4.336583698771e-02
   155    1.705686909244e-01
   156    1.383588391017e-01
   157    2.567900391461e-02
   158   -1.697957877866e-02
   159    2.339942187182e-02
   160    1.121869894049e-02
   161   -6.412700910585e-02
   162   -4.345901739004e-02
   163   -5.311464487271e-02
   164    4.071887913264e-02
   165    1.557279238605e-03
   166   -7.022622420405e+00
   167   -7.667568284718e+00
   168   -3.057590375017e+00
   169    4.486416225520e+00
   170    2.167383830457e+00
   171   -4.413933901866e-02
   172    4.003825367333e-02
   173    4.804867761347e-02
   174    3.636880401858e-01
   175   -4.234299030330e-01
   176   -3.075262109306e-01
   177   -1.885061111668e+00
   178    2.467728512616e+00
   179    1.338436422795e+00
   180   -4.346888518301e-01
   181    5.599327127396e-01
   182    3.160612176506e-01
   183    4.695745646065e-02
   184    3.159091412035e-02
   185   -9.056514020719e-02
   186    2.816722252017e-02
   187    1.459946912248e-01
   188   -1.627381479558e-01
   189   -5.440468282294e-02
   190    2.501173011594e-01
   191   -9.795107185071e-02
   192   -4.342062967719e-01
   193   -2.296194128339e-01
   194   -2.071108548778e-01
   195    4.712419841611e-01
   196   -1.379607415037e-01
   197   -7.189413129792e-01
   198    2.297487004549e-03
   199    1.570958386234e-02
   200   -1.097839143072e-02
   201   -8.205836053248e-03
   202   -9.841419543400e-03
   203    5.959166454898e-03
   204   -1.962675561887e-03
   205   -6.034270120546e-02
   206    9.392546875223e-02
   207   -3.297145110766e-04
   208   -9.848674244934e-02
   209    3.605440590302e-02
   210    1.845467601275e-01
   211    1.511810165573e-01
   212   -1.817072425643e-02
   213   -1.561796609693e-02
   214    1.950844905946e-02
   215   -1.156756370707e-02
   216    5.844163552168e-02
   217   -3.487947939561e-02
   218   -4.458466173007e-02
   219   -4.046319789680e-02
   220   -2.436931615579e-03

======= END OF MOLDEN-FORMATTED INPUT FILE =======


        *************************************************************
        *                                                           *
        *  Thank you very much for using Q-Chem.  Have a nice day.  *
        *                                                           *
        *************************************************************


0 sent ACK to 0 
now end server 0 ... 
