[Molden Format]                                                                 
[ATOMS] AU                                                                      
C        1    6        0.0000000000        0.0000000000        0.0000000000     
H        2    1        1.6813033065        0.0000000000        1.1888609692     
H        3    1       -1.6813033065        0.0000000000        1.1888609692     
H        4    1        0.0000000000       -1.6813033065       -1.1888609692     
H        5    1        0.0000000000        1.6813033065       -1.1888609692     
[Molden Format]                                                                 
[GTO]                                                                           
  1 0
s  11 1.00
   312100.00000000000        5.6699999999999999E-006                            
   46740.000000000000        4.4100000000000001E-005                            
   10640.000000000000        2.3190000000000000E-004                            
   3013.0000000000000        9.7897000000000001E-004                            
   982.79999999999995        3.5516300000000001E-003                            
   354.80000000000001        1.1440610000000000E-002                            
   138.40000000000001        3.2998550000000001E-002                            
   57.350000000000001        8.4053470000000005E-002                            
   24.920000000000002       0.18067612999999999                                 
   11.230000000000000       0.30491140000000000                                 
   5.2009999999999996       0.34141569999999999                                 
s   1 1.00
   2.4260000000000002        1.0000000000000000                                 
s   1 1.00
  0.96730000000000005        1.0000000000000000                                 
s   1 1.00
  0.44560000000000000        1.0000000000000000                                 
s   1 1.00
  0.19710000000000000        1.0000000000000000                                 

  2 0
s   8 1.00
   13940.799999999999        3.0100000000000000E-006                            
   3471.4299999999998        5.4399999999999996E-006                            
   1903.1800000000001        1.7850000000000000E-005                            
   623.28599999999994        7.1950000000000001E-005                            
   290.36000000000001        1.2055000000000000E-004                            
   126.58499999999999        5.2526999999999999E-004                            
   44.695500000000003        2.0138399999999998E-003                            
   16.003799999999998        6.8708600000000003E-003                            
s   1 1.00
   6.0805600000000002        1.0000000000000000                                 
s   1 1.00
   2.4762200000000001        1.0000000000000000                                 
s   1 1.00
   1.0757099999999999        1.0000000000000000                                 
s   1 1.00
  0.48968200000000001        1.0000000000000000                                 
s   1 1.00
  0.22978599999999999        1.0000000000000000                                 
s   1 1.00
  0.10996549999999999        1.0000000000000000                                 
s   1 1.00
   5.2323000000000001E-002   1.0000000000000000                                 
g   3 1.00
   10.178704699742342        5.9884370424923472E-004                            
   2.3952640718028237       -9.8094243397848932E-002                            
   1.0486496863195751       0.94847150361269594                                 
g   1 1.00
  0.72018956988162897        1.0000000000000000                                 
g   1 1.00
  0.33281514997841094        1.0000000000000000                                 
g   1 1.00
  0.12166473257337672        1.0000000000000000                                 

  3 0
s   8 1.00
   13940.799999999999        3.0100000000000000E-006                            
   3471.4299999999998        5.4399999999999996E-006                            
   1903.1800000000001        1.7850000000000000E-005                            
   623.28599999999994        7.1950000000000001E-005                            
   290.36000000000001        1.2055000000000000E-004                            
   126.58499999999999        5.2526999999999999E-004                            
   44.695500000000003        2.0138399999999998E-003                            
   16.003799999999998        6.8708600000000003E-003                            
s   1 1.00
   6.0805600000000002        1.0000000000000000                                 
s   1 1.00
   2.4762200000000001        1.0000000000000000                                 
s   1 1.00
   1.0757099999999999        1.0000000000000000                                 
s   1 1.00
  0.48968200000000001        1.0000000000000000                                 
s   1 1.00
  0.22978599999999999        1.0000000000000000                                 
s   1 1.00
  0.10996549999999999        1.0000000000000000                                 
s   1 1.00
   5.2323000000000001E-002   1.0000000000000000                                 
g   3 1.00
   10.178704699742342        5.9884370424923472E-004                            
   2.3952640718028237       -9.8094243397848932E-002                            
   1.0486496863195751       0.94847150361269594                                 
g   1 1.00
  0.72018956988162897        1.0000000000000000                                 
g   1 1.00
  0.33281514997841094        1.0000000000000000                                 
g   1 1.00
  0.12166473257337672        1.0000000000000000                                 

  4 0
s   8 1.00
   13940.799999999999        3.0100000000000000E-006                            
   3471.4299999999998        5.4399999999999996E-006                            
   1903.1800000000001        1.7850000000000000E-005                            
   623.28599999999994        7.1950000000000001E-005                            
   290.36000000000001        1.2055000000000000E-004                            
   126.58499999999999        5.2526999999999999E-004                            
   44.695500000000003        2.0138399999999998E-003                            
   16.003799999999998        6.8708600000000003E-003                            
s   1 1.00
   6.0805600000000002        1.0000000000000000                                 
s   1 1.00
   2.4762200000000001        1.0000000000000000                                 
s   1 1.00
   1.0757099999999999        1.0000000000000000                                 
s   1 1.00
  0.48968200000000001        1.0000000000000000                                 
s   1 1.00
  0.22978599999999999        1.0000000000000000                                 
s   1 1.00
  0.10996549999999999        1.0000000000000000                                 
s   1 1.00
   5.2323000000000001E-002   1.0000000000000000                                 
g   3 1.00
   10.178704699742342        5.9884370424923472E-004                            
   2.3952640718028237       -9.8094243397848932E-002                            
   1.0486496863195751       0.94847150361269594                                 
g   1 1.00
  0.72018956988162897        1.0000000000000000                                 
g   1 1.00
  0.33281514997841094        1.0000000000000000                                 
g   1 1.00
  0.12166473257337672        1.0000000000000000                                 

  5 0
s   8 1.00
   13940.799999999999        3.0100000000000000E-006                            
   3471.4299999999998        5.4399999999999996E-006                            
   1903.1800000000001        1.7850000000000000E-005                            
   623.28599999999994        7.1950000000000001E-005                            
   290.36000000000001        1.2055000000000000E-004                            
   126.58499999999999        5.2526999999999999E-004                            
   44.695500000000003        2.0138399999999998E-003                            
   16.003799999999998        6.8708600000000003E-003                            
s   1 1.00
   6.0805600000000002        1.0000000000000000                                 
s   1 1.00
   2.4762200000000001        1.0000000000000000                                 
s   1 1.00
   1.0757099999999999        1.0000000000000000                                 
s   1 1.00
  0.48968200000000001        1.0000000000000000                                 
s   1 1.00
  0.22978599999999999        1.0000000000000000                                 
s   1 1.00
  0.10996549999999999        1.0000000000000000                                 
s   1 1.00
   5.2323000000000001E-002   1.0000000000000000                                 
g   3 1.00
   10.178704699742342        5.9884370424923472E-004                            
   2.3952640718028237       -9.8094243397848932E-002                            
   1.0486496863195751       0.94847150361269594                                 
g   1 1.00
  0.72018956988162897        1.0000000000000000                                 
g   1 1.00
  0.33281514997841094        1.0000000000000000                                 
g   1 1.00
  0.12166473257337672        1.0000000000000000                                 

                                                                                
[MO]
 Sym= A
 Ene=  -11.963527615957567     
 Spin= Alpha
 Occup= 1.0
  1        0.8574236300
  2        0.1768603569
  3        0.0136304528
  4        0.0012346366
  5       -0.0013602308
  6        0.0000035513
  7        0.0000496244
  8       -0.0001467734
  9        0.0004891020
 10       -0.0003950397
 11        0.0005491639
 12       -0.0000433566
 13       -0.0000083528
 14        0.0000012381
 15        0.0000000000
 16       -0.0000134057
 17        0.0000118404
 18       -0.0000000000
 19       -0.0000192687
 20       -0.0000000000
 21        0.0000241303
 22        0.0000000000
 23        0.0000053623
 24       -0.0000025537
 25        0.0000000000
 26        0.0000034815
 27       -0.0000000000
 28        0.0000026312
 29       -0.0000022350
 30       -0.0000000000
 31        0.0000249342
 32       -0.0000232428
 33        0.0000000000
 34        0.0000366526
 35        0.0000000000
 36       -0.0000448815
 37        0.0000000000
 38       -0.0000099737
 39        0.0000048175
 40       -0.0000000000
 41       -0.0000056621
 42        0.0000000000
 43       -0.0000051651
 44        0.0000012804
 45        0.0000000000
 46       -0.0000092317
 47        0.0000004527
 48       -0.0000000000
 49       -0.0000081351
 50        0.0000000000
 51        0.0000166170
 52       -0.0000000000
 53        0.0000036927
 54       -0.0000013307
 55        0.0000000000
 56        0.0000075316
 57       -0.0000000000
 58        0.0000001006
 59       -0.0000010901
 60       -0.0000000000
 61        0.0000057766
 62        0.0000049173
 63        0.0000000000
 64        0.0000016234
 65       -0.0000000000
 66       -0.0000103979
 67        0.0000000000
 68       -0.0000023106
 69        0.0000005438
 70       -0.0000000000
 71       -0.0000081798
 72        0.0000000000
 73        0.0000010927
 74        0.0000035513
 75        0.0000496244
 76       -0.0001467734
 77        0.0004891020
 78       -0.0003950397
 79        0.0005491639
 80       -0.0000433566
 81       -0.0000083528
 82        0.0000012381
 83        0.0000000000
 84        0.0000134057
 85        0.0000118404
 86       -0.0000000000
 87       -0.0000192687
 88       -0.0000000000
 89       -0.0000241303
 90       -0.0000000000
 91       -0.0000053623
 92       -0.0000025537
 93        0.0000000000
 94        0.0000034815
 95       -0.0000000000
 96        0.0000026312
 97       -0.0000022350
 98       -0.0000000000
 99       -0.0000249342
100       -0.0000232428
101        0.0000000000
102        0.0000366526
103        0.0000000000
104        0.0000448815
105       -0.0000000000
106        0.0000099737
107        0.0000048175
108       -0.0000000000
109       -0.0000056621
110        0.0000000000
111       -0.0000051651
112        0.0000012804
113       -0.0000000000
114        0.0000092317
115        0.0000004527
116       -0.0000000000
117       -0.0000081351
118       -0.0000000000
119       -0.0000166170
120        0.0000000000
121       -0.0000036927
122       -0.0000013307
123        0.0000000000
124        0.0000075316
125       -0.0000000000
126        0.0000001006
127       -0.0000010901
128        0.0000000000
129       -0.0000057766
130        0.0000049173
131        0.0000000000
132        0.0000016234
133        0.0000000000
134        0.0000103979
135       -0.0000000000
136        0.0000023106
137        0.0000005438
138       -0.0000000000
139       -0.0000081798
140        0.0000000000
141        0.0000010927
142        0.0000035513
143        0.0000496244
144       -0.0001467734
145        0.0004891020
146       -0.0003950397
147        0.0005491639
148       -0.0000433566
149       -0.0000083528
150       -0.0000025537
151       -0.0000000000
152        0.0000000000
153        0.0000118404
154        0.0000241303
155        0.0000034815
156        0.0000000000
157       -0.0000000000
158        0.0000000000
159        0.0000000000
160        0.0000012381
161       -0.0000134057
162       -0.0000192687
163        0.0000053623
164        0.0000026312
165        0.0000048175
166        0.0000000000
167       -0.0000000000
168       -0.0000232428
169       -0.0000448815
170       -0.0000056621
171       -0.0000000000
172        0.0000000000
173       -0.0000000000
174       -0.0000000000
175       -0.0000022350
176        0.0000249342
177        0.0000366526
178       -0.0000099737
179       -0.0000051651
180       -0.0000013307
181       -0.0000000000
182        0.0000000000
183        0.0000004527
184        0.0000166170
185        0.0000075316
186        0.0000000000
187       -0.0000000000
188        0.0000000000
189        0.0000000000
190        0.0000012804
191       -0.0000092317
192       -0.0000081351
193        0.0000036927
194        0.0000001006
195        0.0000005438
196        0.0000000000
197       -0.0000000000
198        0.0000049173
199       -0.0000103979
200       -0.0000081798
201        0.0000000000
202        0.0000000000
203       -0.0000000000
204        0.0000000000
205       -0.0000010901
206        0.0000057766
207        0.0000016234
208       -0.0000023106
209        0.0000010927
210        0.0000035513
211        0.0000496244
212       -0.0001467734
213        0.0004891020
214       -0.0003950397
215        0.0005491639
216       -0.0000433566
217       -0.0000083528
218       -0.0000025537
219        0.0000000000
220        0.0000000000
221        0.0000118404
222       -0.0000241303
223        0.0000034815
224       -0.0000000000
225       -0.0000000000
226        0.0000000000
227       -0.0000000000
228        0.0000012381
229        0.0000134057
230       -0.0000192687
231       -0.0000053623
232        0.0000026312
233        0.0000048175
234       -0.0000000000
235       -0.0000000000
236       -0.0000232428
237        0.0000448815
238       -0.0000056621
239        0.0000000000
240        0.0000000000
241       -0.0000000000
242       -0.0000000000
243       -0.0000022350
244       -0.0000249342
245        0.0000366526
246        0.0000099737
247       -0.0000051651
248       -0.0000013307
249        0.0000000000
250        0.0000000000
251        0.0000004527
252       -0.0000166170
253        0.0000075316
254       -0.0000000000
255       -0.0000000000
256        0.0000000000
257        0.0000000000
258        0.0000012804
259        0.0000092317
260       -0.0000081351
261       -0.0000036927
262        0.0000001006
263        0.0000005438
264       -0.0000000000
265        0.0000000000
266        0.0000049173
267        0.0000103979
268       -0.0000081798
269        0.0000000000
270        0.0000000000
271       -0.0000000000
272       -0.0000000000
273       -0.0000010901
274       -0.0000057766
275        0.0000016234
276        0.0000023106
277        0.0000010927
 Sym= A
 Ene=  -1.2221908039914586     
 Spin= Alpha
 Occup= 1.0
  1        0.2136922994
  2        0.1903766652
  3       -0.2055846164
  4       -0.4607540653
  5       -0.2589333686
  6       -0.0029855957
  7       -0.0076821620
  8       -0.0128823767
  9       -0.0567278370
 10       -0.0265287413
 11       -0.0383735958
 12       -0.0070679497
 13       -0.0009374959
 14        0.0000787540
 15       -0.0000000000
 16       -0.0005160895
 17       -0.0001038227
 18        0.0000000000
 19       -0.0003687014
 20       -0.0000000000
 21        0.0009289612
 22        0.0000000000
 23        0.0002064358
 24       -0.0000672182
 25       -0.0000000000
 26        0.0005071316
 27        0.0000000000
 28       -0.0000230717
 29       -0.0000384267
 30       -0.0000000000
 31       -0.0000585035
 32        0.0008406069
 33       -0.0000000000
 34       -0.0006100464
 35        0.0000000000
 36        0.0001053062
 37       -0.0000000000
 38        0.0000234014
 39       -0.0000549740
 40        0.0000000000
 41       -0.0005107628
 42       -0.0000000000
 43        0.0001868015
 44       -0.0001391174
 45       -0.0000000000
 46        0.0009055759
 47        0.0001988937
 48        0.0000000000
 49        0.0006358108
 50       -0.0000000000
 51       -0.0016300366
 52        0.0000000000
 53       -0.0003622304
 54        0.0001170181
 55       -0.0000000000
 56       -0.0009010024
 57        0.0000000000
 58        0.0000441986
 59        0.0000134980
 60       -0.0000000000
 61        0.0000090460
 62       -0.0002659919
 63        0.0000000000
 64        0.0001850037
 65       -0.0000000000
 66       -0.0000162828
 67        0.0000000000
 68       -0.0000036184
 69        0.0000160566
 70       -0.0000000000
 71        0.0001696521
 72        0.0000000000
 73       -0.0000591093
 74       -0.0029855957
 75       -0.0076821620
 76       -0.0128823767
 77       -0.0567278370
 78       -0.0265287413
 79       -0.0383735958
 80       -0.0070679497
 81       -0.0009374959
 82        0.0000787540
 83        0.0000000000
 84        0.0005160895
 85       -0.0001038227
 86        0.0000000000
 87       -0.0003687014
 88        0.0000000000
 89       -0.0009289612
 90       -0.0000000000
 91       -0.0002064358
 92       -0.0000672182
 93       -0.0000000000
 94        0.0005071316
 95        0.0000000000
 96       -0.0000230717
 97       -0.0000384267
 98       -0.0000000000
 99        0.0000585035
100        0.0008406069
101       -0.0000000000
102       -0.0006100464
103       -0.0000000000
104       -0.0001053062
105        0.0000000000
106       -0.0000234014
107       -0.0000549740
108        0.0000000000
109       -0.0005107628
110       -0.0000000000
111        0.0001868015
112       -0.0001391174
113        0.0000000000
114       -0.0009055759
115        0.0001988937
116        0.0000000000
117        0.0006358108
118        0.0000000000
119        0.0016300366
120       -0.0000000000
121        0.0003622304
122        0.0001170181
123       -0.0000000000
124       -0.0009010024
125        0.0000000000
126        0.0000441986
127        0.0000134980
128        0.0000000000
129       -0.0000090460
130       -0.0002659919
131        0.0000000000
132        0.0001850037
133        0.0000000000
134        0.0000162828
135       -0.0000000000
136        0.0000036184
137        0.0000160566
138       -0.0000000000
139        0.0001696521
140        0.0000000000
141       -0.0000591093
142       -0.0029855957
143       -0.0076821620
144       -0.0128823767
145       -0.0567278370
146       -0.0265287413
147       -0.0383735958
148       -0.0070679497
149       -0.0009374959
150       -0.0000672182
151        0.0000000000
152        0.0000000000
153       -0.0001038227
154        0.0009289612
155        0.0005071316
156       -0.0000000000
157       -0.0000000000
158       -0.0000000000
159       -0.0000000000
160        0.0000787540
161       -0.0005160895
162       -0.0003687014
163        0.0002064358
164       -0.0000230717
165       -0.0000549740
166       -0.0000000000
167       -0.0000000000
168        0.0008406069
169        0.0001053062
170       -0.0005107628
171        0.0000000000
172        0.0000000000
173        0.0000000000
174       -0.0000000000
175       -0.0000384267
176       -0.0000585035
177       -0.0006100464
178        0.0000234014
179        0.0001868015
180        0.0001170181
181       -0.0000000000
182       -0.0000000000
183        0.0001988937
184       -0.0016300366
185       -0.0009010024
186       -0.0000000000
187        0.0000000000
188        0.0000000000
189        0.0000000000
190       -0.0001391174
191        0.0009055759
192        0.0006358108
193       -0.0003622304
194        0.0000441986
195        0.0000160566
196       -0.0000000000
197        0.0000000000
198       -0.0002659919
199       -0.0000162828
200        0.0001696521
201        0.0000000000
202        0.0000000000
203       -0.0000000000
204       -0.0000000000
205        0.0000134980
206        0.0000090460
207        0.0001850037
208       -0.0000036184
209       -0.0000591093
210       -0.0029855957
211       -0.0076821620
212       -0.0128823767
213       -0.0567278370
214       -0.0265287413
215       -0.0383735958
216       -0.0070679497
217       -0.0009374959
218       -0.0000672182
219        0.0000000000
220       -0.0000000000
221       -0.0001038227
222       -0.0009289612
223        0.0005071316
224       -0.0000000000
225        0.0000000000
226       -0.0000000000
227       -0.0000000000
228        0.0000787540
229        0.0005160895
230       -0.0003687014
231       -0.0002064358
232       -0.0000230717
233       -0.0000549740
234       -0.0000000000
235        0.0000000000
236        0.0008406069
237       -0.0001053062
238       -0.0005107628
239        0.0000000000
240       -0.0000000000
241        0.0000000000
242        0.0000000000
243       -0.0000384267
244        0.0000585035
245       -0.0006100464
246       -0.0000234014
247        0.0001868015
248        0.0001170181
249        0.0000000000
250       -0.0000000000
251        0.0001988937
252        0.0016300366
253       -0.0009010024
254       -0.0000000000
255        0.0000000000
256       -0.0000000000
257        0.0000000000
258       -0.0001391174
259       -0.0009055759
260        0.0006358108
261        0.0003622304
262        0.0000441986
263        0.0000160566
264       -0.0000000000
265        0.0000000000
266       -0.0002659919
267        0.0000162828
268        0.0001696521
269        0.0000000000
270       -0.0000000000
271        0.0000000000
272       -0.0000000000
273        0.0000134980
274       -0.0000090460
275        0.0001850037
276        0.0000036184
277       -0.0000591093
 Sym= A
 Ene= -0.55883542881960047     
 Spin= Alpha
 Occup= 1.0
  1        0.0000000000
  2       -0.0000000000
  3        0.0000000000
  4       -0.0000000000
  5        0.0000000000
  6        0.0037276927
  7        0.0067361650
  8        0.0284077582
  9        0.0242401865
 10        0.0771118380
 11        0.3832125072
 12       -0.1391076262
 13        0.0981999869
 14        0.0014353623
 15        0.0004342822
 16        0.0022249531
 17       -0.0052039605
 18       -0.0007282975
 19       -0.0034082135
 20        0.0011135781
 21       -0.0012338122
 22       -0.0046435808
 23       -0.0018136824
 24        0.0016233483
 25        0.0000843866
 26       -0.0045361291
 27        0.0001583793
 28        0.0013240571
 29       -0.0028522239
 30       -0.0007377142
 31        0.0000055402
 32        0.0058411700
 33        0.0010855170
 34        0.0112721735
 35       -0.0020338593
 36       -0.0052974354
 37        0.0083147206
 38        0.0017602716
 39       -0.0022383252
 40        0.0000079437
 41        0.0075887811
 42       -0.0003697827
 43       -0.0031434924
 44       -0.0029676809
 45        0.0024530147
 46       -0.0170093376
 47        0.0107650197
 48        0.0120292110
 49        0.0070410658
 50       -0.0033190584
 51        0.0070703520
 52        0.0025981310
 53        0.0146525536
 54        0.0003837065
 55       -0.0039619136
 56       -0.0130672589
 57       -0.0000478234
 58        0.0010043655
 59        0.0039554256
 60        0.0027350055
 61       -0.0091184604
 62       -0.0095823344
 63        0.0016192774
 64       -0.0141502194
 65        0.0004639208
 66        0.0071486206
 67       -0.0095967791
 68        0.0067355869
 69        0.0022356542
 70        0.0001710011
 71       -0.0038315909
 72       -0.0007107602
 73        0.0029969684
 74       -0.0078380512
 75       -0.0141638300
 76       -0.0597317106
 77       -0.0509687457
 78       -0.1621395803
 79       -0.8057636374
 80        0.2924953250
 81       -0.2064806788
 82        0.0001588056
 83       -0.0004342822
 84        0.0029284347
 85        0.0001505094
 86       -0.0007282975
 87       -0.0011033429
 88       -0.0011135781
 89       -0.0048027099
 90        0.0046435808
 91       -0.0013275314
 92       -0.0005948719
 93        0.0000843866
 94        0.0034187221
 95        0.0001583793
 96       -0.0003858965
 97        0.0004358045
 98        0.0007377142
 99        0.0028269874
100        0.0070413418
101        0.0010855170
102       -0.0096561687
103        0.0020338593
104       -0.0059824565
105       -0.0083147206
106       -0.0008328352
107       -0.0004673069
108        0.0000079437
109       -0.0042375006
110       -0.0003697827
111        0.0023156115
112        0.0001961560
113       -0.0024530147
114       -0.0108411298
115       -0.0165970972
116        0.0120292110
117        0.0154201611
118        0.0033190584
119        0.0155333555
120       -0.0025981310
121        0.0056633446
122        0.0018825926
123       -0.0039619136
124        0.0053015414
125       -0.0000478234
126       -0.0034536171
127       -0.0023236685
128       -0.0027350055
129       -0.0147267273
130       -0.0021544523
131        0.0016192774
132        0.0160964636
133       -0.0004639208
134        0.0249418683
135        0.0095967791
136        0.0064127712
137        0.0016964057
138        0.0001710011
139       -0.0080239818
140       -0.0007107602
141       -0.0013454136
142        0.0041130147
143        0.0074324650
144        0.0313441950
145        0.0267458322
146        0.0850826902
147        0.4228241976
148       -0.1534868234
149        0.1083506667
150       -0.0001195613
151        0.0031293461
152        0.0002371408
153        0.0015740312
154       -0.0028584973
155       -0.0008566637
156        0.0012204076
157       -0.0020466414
158       -0.0130492613
159        0.0004450730
160       -0.0005699525
161        0.0012686576
162        0.0018456840
163       -0.0003158251
164       -0.0001648367
165        0.0010377075
166       -0.0057154948
167        0.0000223231
168       -0.0066547965
169       -0.0023494858
170        0.0004285514
171       -0.0020731039
172        0.0030504895
173        0.0233657960
174       -0.0010391530
175        0.0006231871
176        0.0019147012
177        0.0029156738
178       -0.0011315392
179       -0.0005573709
180       -0.0013998390
181       -0.0093271254
182       -0.0111336592
183        0.0077844446
184        0.0082532674
185        0.0006145891
186        0.0068933937
187        0.0338041535
188        0.0073011953
189       -0.0001343919
190        0.0008228366
191       -0.0018711917
192       -0.0127214643
193       -0.0008798975
194        0.0020178125
195       -0.0018700841
196        0.0013036974
197        0.0004805424
198        0.0045467871
199        0.0146063255
200        0.0066737177
201        0.0076858363
202        0.0045504481
203       -0.0269686011
204       -0.0019973585
205        0.0003013296
206       -0.0070467895
207       -0.0063547645
208        0.0021780144
209       -0.0000531589
210       -0.0000026563
211       -0.0000048000
212       -0.0000202426
213       -0.0000172729
214       -0.0000549479
215       -0.0002730674
216        0.0000991245
217       -0.0000699748
218       -0.0009089151
219       -0.0031293461
220        0.0002371408
221        0.0034794199
222        0.0007104004
223        0.0019740708
224       -0.0012204076
225       -0.0020466414
226        0.0130492613
227        0.0004450730
228       -0.0010242154
229        0.0005651759
230        0.0026658724
231       -0.0008019761
232       -0.0007733239
233        0.0016679245
234        0.0057154948
235        0.0000223231
236       -0.0062277153
237       -0.0016644647
238       -0.0037798319
239        0.0020731039
240        0.0030504895
241       -0.0233657960
242       -0.0010391530
243        0.0017932323
244       -0.0009067460
245       -0.0045316786
246        0.0014615676
247        0.0013852518
248       -0.0008664602
249        0.0093271254
250       -0.0111336592
251       -0.0019523671
252       -0.0002097361
253        0.0071511283
254       -0.0068933937
255        0.0338041535
256       -0.0073011953
257       -0.0001343919
258        0.0019486883
259       -0.0080393996
260       -0.0097397625
261        0.0081093116
262        0.0004314390
263       -0.0020619758
264       -0.0013036974
265        0.0004805424
266        0.0071899996
267       -0.0031869222
268        0.0051818550
269       -0.0076858363
270        0.0045504481
271        0.0269686011
272       -0.0019973585
273       -0.0019330866
274       -0.0014385226
275        0.0044085203
276        0.0025008300
277       -0.0015983959
 Sym= A
 Ene= -0.55883542881958659     
 Spin= Alpha
 Occup= 1.0
  1       -0.0000000000
  2       -0.0000000000
  3        0.0000000000
  4       -0.0000000000
  5        0.0000000000
  6        0.0067789861
  7        0.0122500357
  8        0.0516608563
  9        0.0440819294
 10        0.1402315365
 11        0.6968901285
 12       -0.2529738190
 13        0.1785813359
 14       -0.0008564138