 --invoking executable--
/usr/local/cfour/bin/xjoda


   *************************************************************************
         <<<     CCCCCC     CCCCCC   |||     CCCCCC     CCCCCC   >>>
       <<<      CCC        CCC       |||    CCC        CCC         >>>
      <<<      CCC        CCC        |||   CCC        CCC            >>>
    <<<        CCC        CCC        |||   CCC        CCC              >>>
      <<<      CCC        CCC        |||   CCC        CCC            >>>
       <<<      CCC        CCC       |||    CCC        CCC         >>>
         <<<     CCCCCC     CCCCCC   |||     CCCCCC     CCCCCC   >>>
   *************************************************************************

     ****************************************************************
     * CFOUR Coupled-Cluster techniques for Computational Chemistry *
     ****************************************************************


   Department of Chemistry                Institut fuer Physikalische Chemie
   University of Texas at Austin          Universitaet Mainz
   Austin, TX  78712, USA                 D-55099 Mainz, Germany

                       Version 2.00beta

                     kbob-G41MT-S2                                     
                     Пн. мая 11 18:33:46 KRAT 2015                
                     integer*8 version is running

********************************************************************************
*                          Input from ZMAT file                                *
********************************************************************************
CFOUR input file for CASINO with sg-orbitals                                    
C       0.000000      0.000000      0.000000                                    
H       0.629118      0.629118      0.629118                                    
H      -0.629118     -0.629118      0.629118                                    
H       0.629118     -0.629118     -0.629118                                    
H      -0.629118      0.629118     -0.629118                                    
                                                                                
*CFOUR(CALC=HF                                                                  
SYMMETRY=OFF                                                                    
BASIS=svp                                                                       
COORD=CARTESIAN)                                                                
                                                                                
********************************************************************************
    -------------------------------------------------------------------
                    CFOUR Control Parameters 
    -------------------------------------------------------------------
        External           Internal           Value            Units
          Name               Name
    -------------------------------------------------------------------
       ABCDTYPE             IABCDT         STANDARD     [  0]   ***   
       ANHARMONIC           IANHAR         OFF          [  0]   ***   
       ANH_ALGORIT          IANALG         STANDARD     [  0]   ***   
       ANH_DERIVAT          IANDER         SECOND       [  1]   ***   
       ANH_STEPSIZ          ICUBST             50000          x 10-6  
       ANH_SYMMETR          IANHSM         ABELIAN      [  0]   ***   
       AO_LADDERS           IAOLAD         SINGLEPASS   [  1]   ***   
       BASIS                IBASIS         svp          [ 28]   ***   
       BREIT                IBREIT         OFF          [  0]   ***   
       BRUCK_CONV           IBRTOL          10D-  4             ***   
       BRUECKNER            IBRKNR             OFF      [  0]   ***   
       BUFFERSIZE           IBUFFS            600               ***   
       CACHE_RECS           ICHREC             10               ***   
       CALCLEVEL            ICLLVL           SCF        [  0]   ***   
       CCORBOPT             ICCORB             OFF      [  0] x 0.01  
       CC_CONV              ICCCNV          10D-  7             ***   
       CC_EXPORDER          ICCEOR              0               ***   
       CC_EXTRAPOL          ICCEXT             DIIS     [  1]   ***   
       CC_MAXCYC            ICCCYC              0              cycles 
       CC_PROGRAM           ICCPRO         VCC          [  0]   ***   
       CHARGE               ICHRGE              0               ***   
       CHOLESKY             ICHOLE         OFF          [  0]   ***   
       CIS_CONV             ICISTL              5               ***   
       COMM_SIZE            IPSIZE            ***               ***   
       CONSTANT             ICONST         OLD          [  1]   ***   
       CONTINUUM            ICONTU         NONE         [  0]   ***   
       CONTRACTION          ICNTYP          GENERAL     [  1]   ***   
       COORDINATES          ICOORD         CARTESIAN    [  1]   ***   
       CPHF_CONVER          ICPHFT          10D- 16             ***   
       CPHF_MAXCYC          ICPHFC             64              cycles 
       CUBIC                ICUBIC         OFF          [  0]   ***   
       CURVILINEAR          ICURVY            OFF       [  0]   ***   
       DBOC                 IDBOC          OFF          [  0]   ***   
       DCT                  IDCT           OFF          [  0]   ***   
       DERIV_LEV            IDRLVL            ZERO      [  0]   ***   
       DIAG_MRCC            IEOMST          10D-  0             ***   
       DIFF_TYPE            IDIFTY         RELAXED      [  0]   ***   
       DIRECT               IDIRCT         OFF          [  0]   ***   
       DROPMO               IDRPMO      NONE         
       ECP                  IECP           OFF          [  0]   ***   
       EIGENVECTOR          IVEC                1               ***   
       EL_ANHARM            IELANH         OFF          [  0]   ***   
       EOMFOLLOW            IEOMSR         ENERGY       [  0]   ***   
       EOM_MRCC             IMRCCE         NEW          [  1]   ***   
       EOM_NONIT            EOMNON         OFF          [  0]   ***   
       EOM_NSING            IEOMSI          10D-  0             ***   
       EOM_NSTATES          IMRCCD         DAVIDSON     [  0]   ***   
       EOM_NTRIP            IEOMTR          10D-  0             ***   
       EOM_ORDER            IEXORD         ENERGY       [  0]   ***   
       ESTATE_CONV          IEXTOL          10D-  5             ***   
       ESTATE_DIAG          IEXDIG         ITERATIVE    [  0]   ***   
       ESTATE_LOCK          IESLOC         ON           [  1]   ***   
       ESTATE_MAXC          IEXMXC             20               ***   
       ESTATE_PROP          IEXPRP         OFF          [  0]   ***   
       EVAL_HESS            IRECAL              0            # of cyc.
       EXCITATION           IEXCIT              0               ***   
       EXCITE               IEXCIT         NONE         [  0]   ***   
       FCGRADNEW            IFCGNW         OFF          [  0]   ***   
       FC_FIELD             IFINFC              0             x 10-6  
       FD_CALTYPE           IFDCAL         GRADONLY     [  0]   ***   
       FD_PROJECT           IFDPRJ         OFF          [  1]   ***   
       FD_STEPSIZE          IDISFD              0            10-4 bohr
       FD_USEGROUP          IFDGRP         FULL         [  0]   ***   
       FILE_RECSIZ          IFLREC              4096           words  
       FINITE_PERT          IFIPER              0             x 10-6  
       FIXGEOM              IFIXGM         OFF          [  0]   ***   
       FOCK                 IFOCK          AO           [  1]   ***   
       FREQ_ALGORI          IVIALG         STANDARD     [  0]   ***   
       FROZEN_CORE          IFROCO         OFF          [  0]   ***   
       FROZEN_VIRT          IFROVI         OFF          [  0]   ***   
       GAMMA_ABCD           IGABCD         STORE        [  0]   ***   
       GAMMA_ABCI           IGABCI         STORE        [  0]   ***   
       GENBAS_1             IGNBS1              0               ***   
       GENBAS_2             IGNBS2              0               ***   
       GENBAS_3             IGNBS3              0               ***   
       GENBAS_4             IGNBS4              0               ***   
       GEO_CONV             ICONTL              5              H/bohr 
       GEO_MAXCYC           IOPTCY             50               ***   
       GEO_MAXSTEP          IMXSTP            300            millibohr
       GEO_METHOD           INR            SINGLE_POINT [  5]   ***   
       GIAO                 IGIAO          OFF          [  1]   ***   
       GIMIC                IGIMIC         OFF          [  0]   ***   
       GRID                 IGRID          OFF          [  0]   ***   
       GRID_ALGO            IGALGO         SERIAL       [  0]   ***   
       GUESS                IGUESS            MOREAD    [  0]   ***   
       HBAR                 IHBAR              OFF      [  0]   ***   
       HESS_TYPE            IHESTP         SCF          [  0]   ***   
       HF2_FILE             IHF2Fl         USE          [  1]   ***   
       HFSTABILITY          ISTABL         OFF          [  0]   ***   
       INCORE               INCORE             OFF      [  0]   ***   
       INPUT_MRCC           IMRCC          ON           [  1]   ***   
       INTEGRALS            INTTYP             VMOL     [  1]   ***   
       JODA_PRINT           IJPRNT              0               ***   
       LINDEP_TOL           ILINDP              8               ***   
       LINEQ_CONV           IZTACN          10D-  7           cycles  
       LINEQ_EXPOR          ILMAXD              5               ***   
       LINEQ_MAXCY          ILMAXC             50               ***   
       LINEQ_TYPE           ILTYPE         DIIS         [  1]   ***   
       LOCK_ORBOCC          ILOCOC             OFF      [  0]   ***   
       MEMORY_SIZE          IMEMSZ         100000000           words  
       MEM_UNIT             IMEMU          INTEGERWORDS [  0]   ***   
       MRCC                 IMRCCC         OFF          [  0]   ***   
       MULTIPLICTY          IMULTP              1               ***   
       NEGEVAL              IDIE             ABORT      [  0]   ***   
       NEWNORM              INEWNO         OFF          [  0]   ***   
       NON-HF               INONHF             OFF      [  0]   ***   
       NTOP_TAMP            ITOPT2             15               ***   
       NUC_MODEL            INUCMO         POINT        [  0]   ***   
       OCCUPATION           IOCCU   ESTIMATED BY SCF 
       OPEN-SHELL           IOPEN          SPIN-ORBITAL [  0]   ***   
       ORBITALS             IORBTP           STANDARD   [  0]   ***   
       PARALLEL             IPARAL         ON           [  1]   ***   
       PARA_INT             IPINTS         ON           [  1]   ***   
       PARA_PRINT           IPPRIN              0               ***   
       PERT_ORB             IPTORB         STANDARD     [  0]   ***   
       POINTS               IGRDFD              0               ***   
       PRINT                IPRNT               0               ***   
       PROPS                IPROPS             OFF      [  0]   ***   
       PROP_INTEGR          IINTYP         INTERNAL     [  0]   ***   
       PSI                  IPSI           OFF          [  0]   ***   
       QUARTIC              IQUART         OFF          [  0]   ***   
       RAMAN_INT            IRAMIN         OFF          [  0]   ***   
       RAMAN_ORB            IRAMRE         UNRELAXED    [  0]   ***   
       RDO                  IRDOFM             OFF      [  0]   ***   
       REFERENCE            IREFNC             RHF      [  0]   ***   
       RELATIVIST           IRELAT         OFF          [  0]   ***   
       RELAX_DENS           IRDENS             OFF      [  0]   ***   
       RESET_FLAGS          IRESET             OFF      [  0]   ***   
       RESTART_CC           ICCRES         OFF          [  0]   ***   
       ROT_EVEC             ROTVEC              0               ***   
       SAVE_INTS            ISVINT             OFF      [  0]   ***   
       SCALE_ON             ISTCRT              0               ***   
       SCF_CONV             ISCFCV          10D-  7             ***   
       SCF_DAMPING          IDAMP               0             x 10-3  
       SCF_EXPORDE          IRPPOR              6               ***   
       SCF_EXPSTAR          IRPPLS              8               ***   
       SCF_EXTRAPO          IRPP                ON      [  1]   ***   
       SCF_MAXCYC           ISCFCY            150              cycles 
       SCF_NOSTOP           ISCFST         OFF          [  0]   ***   
       SCF_PRINT            ISCFPR              0               ***   
       SD_FIELD             IFINSD              0             x 10-6  
       SEQUENCE             ISEQUE         OFF          [  0]   ***   
       SOPERT               IPERSO         OFF          [  0]   ***   
       SPHERICAL            IDFGHI             ON       [  1]   ***   
       SPINORBIT            ISOCAL         OFF          [  0]   ***   
       SPINROTATIO          ISRCON         OFF          [  0]   ***   
       SPIN_FLIP            ISPFLP         OFF          [  0]   ***   
       SPIN_ORBIT           ISPORB         OFF          [  0]   ***   
       SPIN_SCAL            ISCSMP         OFF          [  0]   ***   
       SUBGROUP             ISUBGP         DEFAULT      [  0]   ***   
       SUBGRPAXIS           ISBXYZ         X            [  0]   ***   
       SYMMETRY             ISYM            OFF         [  1]   ***   
       SYM_CHECK            ISYMCK         OVERRIDE     [  1]   ***   
       T3_EXTRAPOL          IT3EXT         OFF          [  0]   ***   
       TAMP_SUM             IEVERY              0               ***   
       TESTSUITE            ITESTS         OFF          [  0]   ***   
       THERMOCH             ITHERM         OFF          [  0]   ***   
       TOL_CHOLESK          ITOLCH          10D-  4             ***   
       TRANGRAD             IRESRM         OFF          [  0]   ***   
       TRANS_INV            ITRAIN         USE          [  0]   ***   
       TREAT_PERT           ITREAT         SIMULTANEOUS [  0]   ***   
       UIJ_THRESHO          IUIJTH              1               ***   
       UNITS                IUNITS         ANGSTROM     [  0]   ***   
       UNOS                 IUNOS          OFF          [  0]   ***   
       UPDATE_HESS          IHUPDT         ON           [  1]   ***   
       VIBPHASE             ISETPH         STANDARD     [  0]   ***   
       VIBRATION            IVIB              NO        [  0]   ***   
       VIB_ALGORIT          IGEALG         STANDARD     [  0]   ***   
       VNATORB              IVNORB         OFF          [  0]   ***   
       VTRAN                IVTRAN         FULL/PARTIAL [  0]   ***   
       XFIELD               IXEFLD              0             x 10-6  
       XFORM_TOL            IXFTOL          10D- 11             ***   
       YFIELD               IYEFLD              0             x 10-6  
       ZFIELD               IZEFLD              0             x 10-6  
    -------------------------------------------------------------------
  @GETXYZ-I,     5 atoms read from ZMAT.
  1  C          6    12.00000
  2  H          1     1.00783
  3  H          1     1.00783
  4  H          1     1.00783
  5  H          1     1.00783
  1  C          6    12.00000
  2  H          1     1.00783
  3  H          1     1.00783
  4  H          1     1.00783
  5  H          1     1.00783
 factor:   60.199719999999999     
   Rotational constants (in cm-1): 
          5.2827152700             5.2827152700             5.2827152700
   Rotational constants (in MHz): 
     158371.8417567255        158371.8417567255        158371.8417567255
********************************************************************************
   The full molecular point group is T d .
   The largest Abelian subgroup of the full molecular point group is C2v .
   The computational point group is C1  .
********************************************************************************
 ----------------------------------------------------------------
 Z-matrix   Atomic            Coordinates (in bohr)
  Symbol    Number           X              Y              Z
 ----------------------------------------------------------------
     C         6         0.00000000     0.00000000     0.00000000
     H         1         1.68130331     0.00000000     1.18886097
     H         1        -1.68130331     0.00000000     1.18886097
     H         1         0.00000000    -1.68130331    -1.18886097
     H         1         0.00000000     1.68130331    -1.18886097
 ----------------------------------------------------------------
   Interatomic distance matrix (Angstroms) 

                 C             H             H             H             H    
                [ 1]        [ 2]        [ 3]        [ 4]        [ 5]
  C    [ 1]     0.00000
  H    [ 2]     1.08966     0.00000
  H    [ 3]     1.08966     1.77941     0.00000
  H    [ 4]     1.08966     1.77941     1.77941     0.00000
  H    [ 5]     1.08966     1.77941     1.77941     1.77941     0.00000
   Rotational constants (in cm-1): 
          5.2827152700             5.2827152700             5.2827152700
   Rotational constants (in MHz): 
     158371.8417567255        158371.8417567255        158371.8417567255
  There are  181 basis functions.
 @GEOPT-W, Archive file not created for single-point calculation.
  @CHECKOUT-I, Total execution time (CPU/WALL):        0.66/       0.72 seconds.
--executable xjoda finished with status     0 in        0.85 seconds (walltime).
 --invoking executable--
/usr/local/cfour/bin/xvmol
 Serial version of molecule started
********************************************************************************
                    Input from MOL file
********************************************************************************
INTGRL        1    0    1    0    0    0    0    0    0                         
         *** CFOUR Program System (Release V0.1) ***                            
CFOUR input file for CASINO with sg-orbitals                                    
    5    0            0.10E-08              0    0                              
   9999.00      3.00                                                            
          6.00000000    1    1    5                                             
C #1   0.000000000000000   0.000000000000000   0.000000000000000                
   11    1                                                                      
   312100.00000000000        5.6699999999999999E-006                            
   46740.000000000000        4.4100000000000001E-005                            
   10640.000000000000        2.3190000000000000E-004                            
   3013.0000000000000        9.7897000000000001E-004                            
   982.79999999999995        3.5516300000000001E-003                            
   354.80000000000001        1.1440610000000000E-002                            
   138.40000000000001        3.2998550000000001E-002                            
   57.350000000000001        8.4053470000000005E-002                            
   24.920000000000002       0.18067612999999999                                 
   11.230000000000000       0.30491140000000000                                 
   5.2009999999999996       0.34141569999999999                                 
    1    1                                                                      
   2.4260000000000002        1.0000000000000000                                 
    1    1                                                                      
  0.96730000000000005        1.0000000000000000                                 
    1    1                                                                      
  0.44560000000000000        1.0000000000000000                                 
    1    1                                                                      
  0.19710000000000000        1.0000000000000000                                 
          1.00000000    1    5    8    0    0    0    4                         
H #2   1.681303306460232   0.000000000000000   1.188860969229394                
    8    1                                                                      
   13940.799999999999        3.0100000000000000E-006                            
   3471.4299999999998        5.4399999999999996E-006                            
   1903.1800000000001        1.7850000000000000E-005                            
   623.28599999999994        7.1950000000000001E-005                            
   290.36000000000001        1.2055000000000000E-004                            
   126.58499999999999        5.2526999999999999E-004                            
   44.695500000000003        2.0138399999999998E-003                            
   16.003799999999998        6.8708600000000003E-003                            
    1    1                                                                      
   6.0805600000000002        1.0000000000000000                                 
    1    1                                                                      
   2.4762200000000001        1.0000000000000000                                 
    1    1                                                                      
   1.0757099999999999        1.0000000000000000                                 
    1    1                                                                      
  0.48968200000000001        1.0000000000000000                                 
    1    1                                                                      
  0.22978599999999999        1.0000000000000000                                 
    1    1                                                                      
  0.10996549999999999        1.0000000000000000                                 
    1    1                                                                      
   5.2323000000000001E-002   1.0000000000000000                                 
    3    1                                                                      
   10.178704699742342        5.9884370424923472E-004                            
   2.3952640718028237       -9.8094243397848932E-002                            
   1.0486496863195751       0.94847150361269594                                 
    1    1                                                                      
  0.72018956988162897        1.0000000000000000                                 
    1    1                                                                      
  0.33281514997841094        1.0000000000000000                                 
    1    1                                                                      
  0.12166473257337672        1.0000000000000000                                 
          1.00000000    1    5    8    0    0    0    4                         
H #3  -1.681303306460232   0.000000000000000   1.188860969229394                
    8    1                                                                      
   13940.799999999999        3.0100000000000000E-006                            
   3471.4299999999998        5.4399999999999996E-006                            
   1903.1800000000001        1.7850000000000000E-005                            
   623.28599999999994        7.1950000000000001E-005                            
   290.36000000000001        1.2055000000000000E-004                            
   126.58499999999999        5.2526999999999999E-004                            
   44.695500000000003        2.0138399999999998E-003                            
   16.003799999999998        6.8708600000000003E-003                            
    1    1                                                                      
   6.0805600000000002        1.0000000000000000                                 
    1    1                                                                      
   2.4762200000000001        1.0000000000000000                                 
    1    1                                                                      
   1.0757099999999999        1.0000000000000000                                 
    1    1                                                                      
  0.48968200000000001        1.0000000000000000                                 
    1    1                                                                      
  0.22978599999999999        1.0000000000000000                                 
    1    1                                                                      
  0.10996549999999999        1.0000000000000000                                 
    1    1                                                                      
   5.2323000000000001E-002   1.0000000000000000                                 
    3    1                                                                      
   10.178704699742342        5.9884370424923472E-004                            
   2.3952640718028237       -9.8094243397848932E-002                            
   1.0486496863195751       0.94847150361269594                                 
    1    1                                                                      
  0.72018956988162897        1.0000000000000000                                 
    1    1                                                                      
  0.33281514997841094        1.0000000000000000                                 
    1    1                                                                      
  0.12166473257337672        1.0000000000000000                                 
          1.00000000    1    5    8    0    0    0    4                         
H #4   0.000000000000000  -1.681303306460232  -1.188860969229394                
    8    1                                                                      
   13940.799999999999        3.0100000000000000E-006                            
   3471.4299999999998        5.4399999999999996E-006                            
   1903.1800000000001        1.7850000000000000E-005                            
   623.28599999999994        7.1950000000000001E-005                            
   290.36000000000001        1.2055000000000000E-004                            
   126.58499999999999        5.2526999999999999E-004                            
   44.695500000000003        2.0138399999999998E-003                            
   16.003799999999998        6.8708600000000003E-003                            
    1    1                                                                      
   6.0805600000000002        1.0000000000000000                                 
    1    1                                                                      
   2.4762200000000001        1.0000000000000000                                 
    1    1                                                                      
   1.0757099999999999        1.0000000000000000                                 
    1    1                                                                      
  0.48968200000000001        1.0000000000000000                                 
    1    1                                                                      
  0.22978599999999999        1.0000000000000000                                 
    1    1                                                                      
  0.10996549999999999        1.0000000000000000                                 
    1    1                                                                      
   5.2323000000000001E-002   1.0000000000000000                                 
    3    1                                                                      
   10.178704699742342        5.9884370424923472E-004                            
   2.3952640718028237       -9.8094243397848932E-002                            
   1.0486496863195751       0.94847150361269594                                 
    1    1                                                                      
  0.72018956988162897        1.0000000000000000                                 
    1    1                                                                      
  0.33281514997841094        1.0000000000000000                                 
    1    1                                                                      
  0.12166473257337672        1.0000000000000000                                 
          1.00000000    1    5    8    0    0    0    4                         
H #5   0.000000000000000   1.681303306460232  -1.188860969229394                
    8    1                                                                      
   13940.799999999999        3.0100000000000000E-006                            
   3471.4299999999998        5.4399999999999996E-006                            
   1903.1800000000001        1.7850000000000000E-005                            
   623.28599999999994        7.1950000000000001E-005                            
   290.36000000000001        1.2055000000000000E-004                            
   126.58499999999999        5.2526999999999999E-004                            
   44.695500000000003        2.0138399999999998E-003                            
   16.003799999999998        6.8708600000000003E-003                            
    1    1                                                                      
   6.0805600000000002        1.0000000000000000                                 
    1    1                                                                      
   2.4762200000000001        1.0000000000000000                                 
    1    1                                                                      
   1.0757099999999999        1.0000000000000000                                 
    1    1                                                                      
  0.48968200000000001        1.0000000000000000                                 
    1    1                                                                      
  0.22978599999999999        1.0000000000000000                                 
    1    1                                                                      
  0.10996549999999999        1.0000000000000000                                 
    1    1                                                                      
   5.2323000000000001E-002   1.0000000000000000                                 
    3    1                                                                      
   10.178704699742342        5.9884370424923472E-004                            
   2.3952640718028237       -9.8094243397848932E-002                            
   1.0486496863195751       0.94847150361269594                                 
    1    1                                                                      
  0.72018956988162897        1.0000000000000000                                 
    1    1                                                                      
  0.33281514997841094        1.0000000000000000                                 
    1    1                                                                      
  0.12166473257337672        1.0000000000000000                                 
FINISH                                                                          

********************************************************************************
 One- and two-electron integrals over symmetry-adapted AOs are calculated.

  Spherical harmonics are used.
  
  Integrals less than  0.10E-13 are neglected.

   Basis function not normalized: 
   Center (as ordered in MOL file):   1
   Angular Momentum type          : s
   Offset within angular momentum :  1
   <chi|chi>                      :    1.1696536752
   Basis function not normalized: 
   Center (as ordered in MOL file):   2
   Angular Momentum type          : s
   Offset within angular momentum :  1
   <chi|chi>                      :  111.0545852328
   Basis function not normalized: 
   Center (as ordered in MOL file):   2
   Angular Momentum type          : g
   Offset within angular momentum :  1
   <chi|chi>                      :    1.1241326831
   Basis function not normalized: 
   Center (as ordered in MOL file):   3
   Angular Momentum type          : s
   Offset within angular momentum :  1
   <chi|chi>                      :  111.0545852328
   Basis function not normalized: 
   Center (as ordered in MOL file):   3
   Angular Momentum type          : g
   Offset within angular momentum :  1
   <chi|chi>                      :    1.1241326831
   Basis function not normalized: 
   Center (as ordered in MOL file):   4
   Angular Momentum type          : s
   Offset within angular momentum :  1
   <chi|chi>                      :  111.0545852328
   Basis function not normalized: 
   Center (as ordered in MOL file):   4
   Angular Momentum type          : g
   Offset within angular momentum :  1
   <chi|chi>                      :    1.1241326831
   Basis function not normalized: 
   Center (as ordered in MOL file):   5
   Angular Momentum type          : s
   Offset within angular momentum :  1
   <chi|chi>                      :  111.0545852328
   Basis function not normalized: 
   Center (as ordered in MOL file):   5
   Angular Momentum type          : g
   Offset within angular momentum :  1
   <chi|chi>                      :    1.1241326831
  Nuclear repulsion energy :   13.4395250729 a.u.
  required memory for a1 array               5473552  words 
  required memory for a2 array               2152169  words 
 @GETMEM-I,  Allocated      73 MB of main memory.
  @MOLECU-I, One electron integrals (CPU/WALL):        1.74/       0.90 seconds.
  @TWOEL-I,  120174739 integrals of symmetry type  I I I I
  @TWOEL-I, Total number of 2-e integrals  120174739.
  @MOLECU-I, Two electron integrals (CPU/WALL):     3381.38/    1820.63 seconds.
  @CHECKOUT-I, Total execution time (CPU/WALL):     3395.63/    1833.92 seconds.
--executable xvmol finished with status     0 in     1833.97 seconds (walltime).
 --invoking executable--
/usr/local/cfour/bin/xvmol2ja
 @GETMEM-I,  Allocated     762 MB of main memory.
  @CHECKOUT-I, Total execution time (CPU/WALL):        0.10/       0.06 seconds.
--executable xvmol2ja finished with status     0 in        0.24 seconds (walltime).
 --invoking executable--
/usr/local/cfour/bin/xvscf
  There are  181 functions in the AO basis.

  There are 1 irreducible representations.

       Irrep        # of functions
         1                181


  Parameters for SCF calculation: 
        SCF reference function:  RHF  
  Maximum number of iterations:  150
     Full symmetry point group: T d 
     Computational point group: C1  
        Initial density matrix: MOREAD                 
     SCF convergence tolerance: 10**(- 7)
  DIIS convergence acceleration:  ON
          Latest start for DIIS:   8
                     DIIS order:   6

  Memory information:    2737194 words required.
  Fock matrices are constructed from AO integral file.
 @GETMEM-I,  Allocated      20 MB of main memory.
  Initialization and symmetry analysis required      0.021 seconds.

  @INITGES-I, Occupancies from core Hamiltonian:

          Alpha population by irrep:   5
           Beta population by irrep:   5


 total no. of electrons in initial guess :   0.0000000000000000     
  --------------------------------------------------------------------
  Iteration         Total Energy            Largest Density Difference
  --------------------------------------------------------------------
       0            13.439525072866369              0.0000000000D+00
       1           -36.898368436863983              0.2091663939D+01
       2           -39.294293339848423              0.1858947306D+01
       3           -39.300324459644642              0.2655331724D+00
       4           -39.300486053551197              0.4206228162D-01
       5           -39.300489327163753              0.4038324805D-02
       6           -39.300489342973904              0.1967804365D-03
       7           -39.300489343105852              0.1191956779D-04
       8           -39.300489343106122              0.2147834374D-05
       9           -39.300489343106399              0.1195503401D-06

  SCF has converged.

 Density matrix saved to file den.dat
 total electron number:   10.000000000000073     
     E(SCF)=       -39.300489343107813              0.1358283747D-07

  Eigenvector printing suppressed.

 @PUTMOS-I, Writing converged MOs to NEWMOS. 
 @PUTMOS-I, Symmetry   1 Full Blocks 45 Partial Blocksize   1



  ORBITAL EIGENVALUES (ALPHA)  (1H = 27.2113838 eV)

       MO #        E(hartree)               E(eV)           FULLSYM    COMPSYM
       ----   --------------------   --------------------   -------   ---------
    1     1         -11.9635276160        -325.5441417940      A1         A (1)
    2     2          -1.2221908040         -33.2575030682      A1         A (1)
    3     3          -0.5588354288         -15.2066853456      T2         A (1)
    4     4          -0.5588354288         -15.2066853456      T2         A (1)
    5     5          -0.5588354288         -15.2066853456      T2         A (1)
  +++++++++++++++++++++++++++++++++++++++++++++++++++++++++++++++++++++++++++++
    6     6           0.0427118374           1.1622482012      A1         A (1)
    7     7           0.1100180215           2.9937426096      T2         A (1)
    8     8           0.1100180215           2.9937426096      T2         A (1)
    9     9           0.1100180215           2.9937426097      T2         A (1)
   10    10           0.2385281691           6.4906815620      A1         A (1)
   11    11           0.4179909850          11.3741131246      T2         A (1)
   12    12           0.4179909850          11.3741131247      T2         A (1)
   13    13           0.4179909850          11.3741131248      T2         A (1)
   14    14           0.4676368702          12.7250463635      T1         A (1)
   15    15           0.4676368702          12.7250463635      T1         A (1)
   16    16           0.4676368702          12.7250463635      T1         A (1)
   17    17           0.4698880866          12.7863050776       E         A (1)
   18    18           0.4698880866          12.7863050776       E         A (1)
   19    19           0.4818133276          13.1108073872      T2         A (1)
   20    20           0.4818133276          13.1108073872      T2         A (1)
   21    21           0.4818133276          13.1108073872      T2         A (1)
   22    22           0.4833498034          13.1526170193      A1         A (1)
   23    23           0.5391226917          14.6702744885      T2         A (1)
   24    24           0.5391226917          14.6702744885      T2         A (1)
   25    25           0.5391226917          14.6702744885      T2         A (1)
   26    26           0.5419756555          14.7479075840      A1         A (1)
   27    27           0.5782451002          15.7348493629       E         A (1)
   28    28           0.5782451002          15.7348493629       E         A (1)
   29    29           0.5810037684          15.8099165429      T1         A (1)
   30    30           0.5810037684          15.8099165429      T1         A (1)
   31    31           0.5810037684          15.8099165429      T1         A (1)
   32    32           0.5887823190          16.0215816678      T2         A (1)
   33    33           0.5887823190          16.0215816678      T2         A (1)
   34    34           0.5887823190          16.0215816678      T2         A (1)
   35    35           0.6126899320          16.6721409008      T1         A (1)
   36    36           0.6126899320          16.6721409008      T1         A (1)
   37    37           0.6126899320          16.6721409008      T1         A (1)
   38    38           0.6284766149          17.1017183883      T2         A (1)
   39    39           0.6284766149          17.1017183883      T2         A (1)
   40    40           0.6284766149          17.1017183883      T2         A (1)
   41    41           0.7063805184          19.2215914098      A1         A (1)
   42    42           0.7575034980          20.6127184275      A2         A (1)
   43    43           0.7713937634          20.9906917721       E         A (1)
   44    44           0.7713937634          20.9906917721       E         A (1)
   45    45           0.7845299902          21.3481466814      T2         A (1)
   46    46           0.7845299902          21.3481466814      T2         A (1)
   47    47           0.7845299902          21.3481466814      T2         A (1)
   48    48           0.8625823197          23.4720585784      T1         A (1)
   49    49           0.8625823197          23.4720585784      T1         A (1)
   50    50           0.8625823197          23.4720585784      T1         A (1)
   51    51           1.0379160322          28.2431315238      A1         A (1)
   52    52           1.1885348751          32.3416786700      T2         A (1)
   53    53           1.1885348751          32.3416786702      T2         A (1)
   54    54           1.1885348751          32.3416786703      T2         A (1)
   55    55           1.3024140124          35.4404875837      A1         A (1)
   56    56           1.3446760961          36.5904973640      T2         A (1)
   57    57           1.3446760961          36.5904973641      T2         A (1)
   58    58           1.3446760961          36.5904973641      T2         A (1)
   59    59           1.3981748167          38.0462715852       E         A (1)
   60    60           1.3981748167          38.0462715852       E         A (1)
   61    61           1.5423607258          41.9697696979      T1         A (1)
   62    62           1.5423607258          41.9697696979      T1         A (1)
   63    63           1.5423607258          41.9697696979      T1         A (1)
   64    64           1.5845187066          43.1169466943      T2         A (1)
   65    65           1.5845187066          43.1169466943      T2         A (1)
   66    66           1.5845187066          43.1169466943      T2         A (1)
   67    67           1.7582166260          47.8435074490      T1         A (1)
   68    68           1.7582166260          47.8435074490      T1         A (1)
   69    69           1.7582166260          47.8435074490      T1         A (1)
   70    70           1.7760522571          48.3288396517      T2         A (1)
   71    71           1.7760522571          48.3288396517      T2         A (1)
   72    72           1.7760522571          48.3288396517      T2         A (1)
   73    73           1.8129636440          49.3332495685       E         A (1)
   74    74           1.8129636440          49.3332495685       E         A (1)
   75    75           1.8269384521          49.7135234361      A1         A (1)
   76    76           1.8299987095          49.7967972732      A2         A (1)
   77    77           1.8908421388          51.4524311817      T2         A (1)
   78    78           1.8908421388          51.4524311818      T2         A (1)
   79    79           1.8908421388          51.4524311818      T2         A (1)
   80    80           1.9186783266          52.2098923701      T1         A (1)
   81    81           1.9186783266          52.2098923701      T1         A (1)
   82    82           1.9186783266          52.2098923701      T1         A (1)
   83    83           1.9352937265          52.6620203963      T2         A (1)
   84    84           1.9352937265          52.6620203966      T2         A (1)
   85    85           1.9352937265          52.6620203967      T2         A (1)
   86    86           1.9703035379          53.6146858107      A1         A (1)
   87    87           2.0043535286          54.5412331768       E         A (1)
   88    88           2.0043535286          54.5412331768       E         A (1)
   89    89           2.1466560273          58.4134810879      T1         A (1)
   90    90           2.1466560273          58.4134810879      T1         A (1)
   91    91           2.1466560273          58.4134810879      T1         A (1)
   92    92           2.9871842885          81.2854182140      A1         A (1)
   93    93           3.1677658658          86.1992928236      T2         A (1)
   94    94           3.1677658658          86.1992928243      T2         A (1)
   95    95           3.1677658658          86.1992928245      T2         A (1)
   96    96           3.2881312629          89.4746018440      A1         A (1)
   97    97           3.3783819304          91.9304473961      T2         A (1)
   98    98           3.3783819304          91.9304473961      T2         A (1)
   99    99           3.3783819304          91.9304473962      T2         A (1)
  100   100           3.7335673566         101.5955343559      T2         A (1)
  101   101           3.7335673566         101.5955343559      T2         A (1)
  102   102           3.7335673566         101.5955343559      T2         A (1)
  103   103           3.7493549465         102.0251365243      A1         A (1)
  104   104           3.7631523546         102.4005830923       E         A (1)
  105   105           3.7631523546         102.4005830923       E         A (1)
  106   106           3.8681146053         105.2567511835      T1         A (1)
  107   107           3.8681146053         105.2567511835      T1         A (1)
  108   108           3.8681146053         105.2567511836      T1         A (1)
  109   109           3.9305472549         106.9556299743      T2         A (1)
  110   110           3.9305472549         106.9556299743      T2         A (1)
  111   111           3.9305472549         106.9556299743      T2         A (1)
  112   112           4.0097334034         109.1103946532      T2         A (1)
  113   113           4.0097334034         109.1103946532      T2         A (1)
  114   114           4.0097334034         109.1103946532      T2         A (1)
  115   115           4.0427030672         110.0075448296       E         A (1)
  116   116           4.0427030672         110.0075448296       E         A (1)
  117   117           4.1299718141         112.3822481970      T1         A (1)
  118   118           4.1299718141         112.3822481970      T1         A (1)
  119   119           4.1299718141         112.3822481970      T1         A (1)
  120   120           4.2725179752         116.2611264986       E         A (1)
  121   121           4.2725179752         116.2611264986       E         A (1)
  122   122           4.3738590071         119.0187562150      T1         A (1)
  123   123           4.3738590071         119.0187562150      T1         A (1)
  124   124           4.3738590071         119.0187562151      T1         A (1)
  125   125           4.3933733888         119.5497695452      A1         A (1)
  126   126           4.3963497672         119.6307609211      T2         A (1)
  127   127           4.3963497672         119.6307609211      T2         A (1)
  128   128           4.3963497672         119.6307609211      T2         A (1)
  129   129           4.5127126201         122.7971551721      A2         A (1)
  130   130           4.5341490106         123.3804690238      T1         A (1)
  131   131           4.5341490106         123.3804690238      T1         A (1)
  132   132           4.5341490106         123.3804690239      T1         A (1)
  133   133           7.3854520099         200.9683693233      T2         A (1)
  134   134           7.3854520099         200.9683693233      T2         A (1)
  135   135           7.3854520099         200.9683693235      T2         A (1)
  136   136           7.4872539256         203.7385403252      A1         A (1)
  137   137           7.5262275467         204.7990664871       E         A (1)
  138   138           7.5262275467         204.7990664872       E         A (1)
  139   139           7.6728914273         208.7899936356      T2         A (1)
  140   140           7.6728914273         208.7899936356      T2         A (1)
  141   141           7.6728914274         208.7899936357      T2         A (1)
  142   142           7.8497651769         213.6029731233      A1         A (1)
  143   143           7.9271823711         215.7096021074      T2         A (1)
  144   144           7.9271823711         215.7096021074      T2         A (1)
  145   145           7.9271823711         215.7096021075      T2         A (1)
  146   146           7.9273806626         215.7149978934       E         A (1)
  147   147           7.9273806626         215.7149978934       E         A (1)
  148   148           7.9934999859         217.5141961780      T1         A (1)
  149   149           7.9934999859         217.5141961781      T1         A (1)
  150   150           7.9934999859         217.5141961781      T1         A (1)
  151   151           8.0993600524         220.3947950775      T2         A (1)
  152   152           8.0993600524         220.3947950775      T2         A (1)
  153   153           8.0993600524         220.3947950776      T2         A (1)
  154   154           8.2585159422         224.7256470828      T1         A (1)
  155   155           8.2585159422         224.7256470828      T1         A (1)
  156   156           8.2585159422         224.7256470828      T1         A (1)
  157   157           8.2615318470         224.8077140262      T2         A (1)
  158   158           8.2615318470         224.8077140262      T2         A (1)
  159   159           8.2615318470         224.8077140263      T2         A (1)
  160   160           8.2835391039         225.4065619406       E         A (1)
  161   161           8.2835391039         225.4065619407       E         A (1)
  162   162           8.2999882420         225.8541657505      A2         A (1)
  163   163           8.3289007670         226.6409155650      A1         A (1)
  164   164           8.3898924877         228.3005846865      T1         A (1)
  165   165           8.3898924877         228.3005846865      T1         A (1)
  166   166           8.3898924877         228.3005846865      T1         A (1)
  167   167           8.5481534321         232.6070839901      T1         A (1)
  168   168           8.5481534321         232.6070839901      T1         A (1)
  169   169           8.5481534321         232.6070839901      T1         A (1)
  170   170           8.5686645983         233.1652212053      T2         A (1)
  171   171           8.5686645983         233.1652212054      T2         A (1)
  172   172           8.5686645983         233.1652212055      T2         A (1)
  173   173          13.7586420137         374.3916886705      A1         A (1)
  174   174          19.8719639735         540.7436389319      T2         A (1)
  175   175          19.8719639735         540.7436389323      T2         A (1)
  176   176          19.8719639736         540.7436389332      T2         A (1)
  177   177          19.9580427589         543.0859617995      A1         A (1)
  178   178          71.0860186077        1934.3489365396      T2         A (1)
  179   179          71.0860186077        1934.3489365404      T2         A (1)
  180   180          71.0860186078        1934.3489365417      T2         A (1)
  181   181          71.1522346517        1936.1507667278      A1         A (1)


  VSCF finished.

  @CHECKOUT-I, Total execution time (CPU/WALL):       97.22/     214.14 seconds.
--executable xvscf finished with status     0 in      214.19 seconds (walltime).
  The final electronic energy is       -39.300489343107813 a.u. 
  This computation required                         2049.43 seconds (walltime).
