 argument  1 = N4.nw
                                         
                                         


              Northwest Computational Chemistry Package (NWChem) 6.8
              ------------------------------------------------------


                    Environmental Molecular Sciences Laboratory
                       Pacific Northwest National Laboratory
                                Richland, WA 99352

                              Copyright (c) 1994-2017
                       Pacific Northwest National Laboratory
                            Battelle Memorial Institute

             NWChem is an open-source computational chemistry package
                        distributed under the terms of the
                      Educational Community License (ECL) 2.0
             A copy of the license is included with this distribution
                              in the LICENSE.TXT file

                                  ACKNOWLEDGMENT
                                  --------------

            This software and its documentation were developed at the
            EMSL at Pacific Northwest National Laboratory, a multiprogram
            national laboratory, operated for the U.S. Department of Energy
            by Battelle under Contract Number DE-AC05-76RL01830. Support
            for this work was provided by the Department of Energy Office
            of Biological and Environmental Research, Office of Basic
            Energy Sciences, and the Office of Advanced Scientific Computing.


           Job information
           ---------------

    hostname        = vladimir-Kubuntu-16
    program         = nwchem
    date            = Sat Feb 16 14:03:51 2019

    compiled        = Wed_Aug_15_19:14:19_2018
    source          = /home/edo/debichem-team/nwchem/nwchem-6.8.1
    nwchem branch   = 6.8.1
    nwchem revision = v6.8-133-ge032219
    ga revision     = 5.6.5
    use scalapack   = T
    input           = N4.nw
    prefix          = N4.
    data base       = ./N4.db
    status          = startup
    nproc           =        1
    time left       =     -1s



           Memory information
           ------------------

    heap     =   13107200 doubles =    100.0 Mbytes
    stack    =   13107197 doubles =    100.0 Mbytes
    global   =   26214400 doubles =    200.0 Mbytes (distinct from heap & stack)
    total    =   52428797 doubles =    400.0 Mbytes
    verify   = yes
    hardfail = no 


           Directory information
           ---------------------

  0 permanent = .
  0 scratch   = .




                                NWChem Input Module
                                -------------------


                              test HF/def2-SVP energy
                              -----------------------

 Scaling coordinates for geometry "geometry" by  1.889725989
 (inverse scale =  0.529177249)

 Turning off AUTOSYM since
 SYMMETRY directive was detected!


          ------
          auto-z
          ------


                             Geometry "geometry" -> ""
                             -------------------------

 Output coordinates in angstroms (scale by  1.889725989 to convert to a.u.)

  No.       Tag          Charge          X              Y              Z
 ---- ---------------- ---------- -------------- -------------- --------------
    1 N                    7.0000     0.52000000     0.52750000     0.51250000
    2 N                    7.0000    -0.52000000    -0.52250000     0.52250000
    3 N                    7.0000    -0.52000000     0.51750000    -0.51750000
    4 N                    7.0000     0.52000000    -0.52250000    -0.51750000

      Atomic Mass 
      ----------- 

      N                 14.003070


 Effective nuclear repulsion energy (a.u.)     105.7779480979

            Nuclear Dipole moment (a.u.) 
            ----------------------------
        X                 Y               Z
 ---------------- ---------------- ----------------
     0.0000000000     0.0000000000     0.0000000000



                                Z-matrix (autoz)
                                -------- 

 Units are Angstrom for bonds and degrees for angles

      Type          Name      I     J     K     L     M      Value
      ----------- --------  ----- ----- ----- ----- ----- ----------
    1 Stretch                  1     2                       1.47790
    2 Stretch                  1     3                       1.46376
    3 Stretch                  1     4                       1.47085
    4 Stretch                  2     3                       1.47078
    5 Stretch                  2     4                       1.47078
    6 Stretch                  3     4                       1.47078
    7 Bend                     1     2     3                59.52518
    8 Bend                     1     2     4                59.84274
    9 Bend                     1     3     2                60.47941
   10 Bend                     1     3     4                60.16083
   11 Bend                     1     4     2                60.31908
   12 Bend                     1     4     3                59.68296
   13 Bend                     2     1     3                59.99541
   14 Bend                     2     1     4                59.83818
   15 Bend                     2     3     4                60.00000
   16 Bend                     2     4     3                60.00000
   17 Bend                     3     1     4                60.15621
   18 Bend                     3     2     4                60.00000
   19 Torsion                  1     2     3     4          70.52878
   20 Torsion                  1     2     4     3         -70.01104
   21 Torsion                  1     3     2     4         -70.52878
   22 Torsion                  1     3     4     2          71.04985
   23 Torsion                  1     4     2     3          70.01104
   24 Torsion                  1     4     3     2         -71.04985
   25 Torsion                  2     1     3     4         -70.26888
   26 Torsion                  2     1     4     3          70.52462
   27 Torsion                  2     3     1     4          70.26888
   28 Torsion                  2     4     1     3         -70.52462
   29 Torsion                  3     1     2     4          70.78827
   30 Torsion                  3     2     1     4         -70.78827


            XYZ format geometry
            -------------------
     4
 geometry
 N                     0.52000000     0.52750000     0.51250000
 N                    -0.52000000    -0.52250000     0.52250000
 N                    -0.52000000     0.51750000    -0.51750000
 N                     0.52000000    -0.52250000    -0.51750000

 ==============================================================================
                                internuclear distances
 ------------------------------------------------------------------------------
       center one      |      center two      | atomic units |  angstroms
 ------------------------------------------------------------------------------
    2 N                |   1 N                |     2.79283  |     1.47790
    3 N                |   1 N                |     2.76611  |     1.46376
    3 N                |   2 N                |     2.77938  |     1.47078
    4 N                |   1 N                |     2.77950  |     1.47085
    4 N                |   2 N                |     2.77938  |     1.47078
    4 N                |   3 N                |     2.77938  |     1.47078
 ------------------------------------------------------------------------------
                         number of included internuclear distances:          6
 ==============================================================================



 ==============================================================================
                                 internuclear angles
 ------------------------------------------------------------------------------
        center 1       |       center 2       |       center 3       |  degrees
 ------------------------------------------------------------------------------
    1 N                |   3 N                |   2 N                |    60.48
    1 N                |   4 N                |   2 N                |    60.32
    1 N                |   3 N                |   4 N                |    60.16
    2 N                |   3 N                |   1 N                |    60.48
    2 N                |   4 N                |   1 N                |    60.32
    2 N                |   3 N                |   4 N                |    60.00
    1 N                |   3 N                |   2 N                |    60.48
    1 N                |   3 N                |   4 N                |    60.16
    3 N                |   2 N                |   4 N                |    60.00
    1 N                |   4 N                |   2 N                |    60.32
    4 N                |   3 N                |   1 N                |    60.16
    4 N                |   2 N                |   3 N                |    60.00
 ------------------------------------------------------------------------------
                            number of included internuclear angles:         12
 ==============================================================================



  library name resolved from: environment
  library file name is: </home/vladimir/bin/nwchem-6.8/src/basis/libraries/>
  
                      Basis "ao basis" -> "" (spherical)
                      -----
  N (Nitrogen)
  ------------
            Exponent  Coefficients 
       -------------- ---------------------------------------------------------
  1 S  1.71284159E+03 -0.005393
  1 S  2.57648127E+02 -0.040222
  1 S  5.84582459E+01 -0.179311
  1 S  1.61983679E+01 -0.463763
  1 S  5.00526008E+00 -0.441714

  2 S  5.87318566E-01  1.000000

  3 S  1.87645923E-01  1.000000

  4 P  1.35714702E+01 -0.040072
  4 P  2.92573729E+00 -0.218070
  4 P  7.99277508E-01 -0.512945

  5 P  2.19543480E-01  1.000000

  6 D  1.00000000E+00  1.000000



 Summary of "ao basis" -> "" (spherical)
 ------------------------------------------------------------------------------
       Tag                 Description            Shells   Functions and Types
 ---------------- ------------------------------  ------  ---------------------
 N                          def2-SVP                 6       14   3s2p1d


                              NWChem Property Module
                              ----------------------


                              test HF/def2-SVP energy

                                 NWChem SCF Module
                                 -----------------


                              test HF/def2-SVP energy



  ao basis        = "ao basis"
  functions       =    56
  atoms           =     4
  alpha electrons =    14
  beta  electrons =    13
  charge          =   1.00
  wavefunction    = UHF 
  input vectors   = atomic
  output vectors  = ./N4.movecs
  use symmetry    = F
  symmetry adapt  = F


 Summary of "ao basis" -> "ao basis" (spherical)
 ------------------------------------------------------------------------------
       Tag                 Description            Shells   Functions and Types
 ---------------- ------------------------------  ------  ---------------------
 N                          def2-SVP                 6       14   3s2p1d



 Forming initial guess at       0.0s


      Superposition of Atomic Density Guess
      -------------------------------------

 Sum of atomic energies:        -216.97672637

 Renormalizing density from      28.00 to     27

      Non-variational initial energy
      ------------------------------

 Total energy =    -213.100910
 1-e energy   =    -487.668157
 2-e energy   =     168.789299
 HOMO         =      -0.761452
 LUMO         =      -0.287750


 Starting SCF solution at       0.1s



 ----------------------------------------------
         Quadratically convergent UHF

 Convergence threshold     :          1.000E-07
 Maximum no. of iterations :          100
 Integral*density screening:          1.000E-09
 ----------------------------------------------


 Integral file          = ./N4.aoints.0
 Record size in doubles =  65536        No. of integs per rec  =  43688
 Max. records in memory =     42        Max. records in file   = 180714
 No. of bits per label  =      8        No. of bits per value  =     64


 #quartets = 4.392D+04 #integrals = 1.188D+06 #direct =  0.0% #cached =100.0%


              iter       energy          gnorm     gmax       time
             ----- ------------------- --------- --------- --------
                 1     -216.7717221653  5.84D-01  1.52D-01      0.6
                 2     -216.8072491376  1.61D-01  4.01D-02      0.7
                 3     -216.8138119693  1.43D-02  4.25D-03      1.0
  ga_iter_lsolve: convergence stagnant ... aborting solve

 Disabled NR: increased maxiter to 110

                 4     -216.8139366066  1.45D-02  2.91D-03      1.1
                 5     -216.8139806818  1.06D-02  2.21D-03      1.2
                 6     -216.8140067007  5.68D-03  1.98D-03      1.2
                 7     -216.8140254729  8.14D-03  1.99D-03      1.2
                 8     -216.8140778724  1.15D-02  2.27D-03      1.3
                 9     -216.8142295406  2.88D-02  5.03D-03      1.3
                10     -216.8144054616  3.19D-02  1.03D-02      1.4
                11     -216.8146504462  2.67D-02  9.21D-03      1.4
                12     -216.8153330391  3.94D-02  9.64D-03      1.4
                13     -216.8157747835  3.86D-02  7.55D-03      1.5
                14     -216.8162897358  4.52D-02  9.77D-03      1.5
                15     -216.8168798576  3.30D-02  7.53D-03      1.6
                16     -216.8171601713  2.35D-02  5.67D-03      1.6
                17     -216.8173540316  2.14D-02  5.52D-03      1.6
                18     -216.8175016384  2.07D-02  4.24D-03      1.7
                19     -216.8176961109  1.94D-02  4.23D-03      1.7
                20     -216.8178217702  1.65D-02  3.00D-03      1.8
                21     -216.8178795321  8.25D-03  1.65D-03      1.8
                22     -216.8178987329  5.78D-03  1.11D-03      1.8
                23     -216.8179072998  3.82D-03  1.07D-03      1.9
                24     -216.8179126676  4.37D-03  9.46D-04      1.9
                25     -216.8179189549  3.61D-03  7.03D-04      1.9
                26     -216.8179238080  3.03D-03  6.45D-04      2.0
                27     -216.8179258451  1.98D-03  3.56D-04      2.0
                28     -216.8179268624  1.38D-03  2.60D-04      2.1
                29     -216.8179275611  1.06D-03  1.82D-04      2.1
                30     -216.8179278143  8.04D-04  1.48D-04      2.2
                31     -216.8179279862  5.32D-04  1.13D-04      2.2
                32     -216.8179280767  3.54D-04  5.15D-05      2.2
                33     -216.8179281210  3.51D-04  8.10D-05      2.3
                34     -216.8179281567  3.28D-04  6.25D-05      2.3
                35     -216.8179281824  2.03D-04  4.06D-05      2.3
                36     -216.8179281917  1.19D-04  2.82D-05      2.4
                37     -216.8179281955  1.05D-04  2.06D-05      2.4
                38     -216.8179282002  1.21D-04  2.05D-05      2.5
                39     -216.8179282048  1.05D-04  2.40D-05      2.5
                40     -216.8179282079  6.62D-05  1.22D-05      2.5
                41     -216.8179282088  4.50D-05  8.97D-06      2.6
                42     -216.8179282097  4.35D-05  8.44D-06      2.6
                43     -216.8179282103  4.06D-05  7.73D-06      2.6
                44     -216.8179282108  3.83D-05  6.08D-06      2.7
                45     -216.8179282114  2.97D-05  4.73D-06      2.7
                46     -216.8179282116  1.86D-05  4.41D-06      2.8
                47     -216.8179282116  1.01D-05  2.14D-06      2.8
                48     -216.8179282117  8.54D-06  2.05D-06      2.9
                49     -216.8179282117  8.60D-06  1.77D-06      2.9
                50     -216.8179282117  6.74D-06  1.38D-06      2.9
                51     -216.8179282117  5.56D-06  1.08D-06      3.0
                52     -216.8179282118  3.47D-06  7.34D-07      3.0
                53     -216.8179282118  3.54D-06  5.29D-07      3.1
                54     -216.8179282118  2.76D-06  4.92D-07      3.1
                55     -216.8179282118  2.27D-06  3.55D-07      3.1
                56     -216.8179282118  1.99D-06  3.39D-07      3.2
                57     -216.8179282118  1.71D-06  2.70D-07      3.2
                58     -216.8179282118  1.09D-06  1.68D-07      3.3
                59     -216.8179282118  8.87D-07  1.97D-07      3.3
                60     -216.8179282118  9.06D-07  1.49D-07      3.3
                61     -216.8179282118  5.38D-07  8.35D-08      3.4
                62     -216.8179282118  5.14D-07  7.94D-08      3.4
                63     -216.8179282118  5.04D-07  6.93D-08      3.5
                64     -216.8179282118  4.77D-07  8.52D-08      3.5
                65     -216.8179282118  4.15D-07  6.03D-08      3.5
                66     -216.8179282118  2.65D-07  3.97D-08      3.6
                67     -216.8179282118  2.49D-07  3.72D-08      3.6
                68     -216.8179282118  1.51D-07  2.05D-08      3.7
                69     -216.8179282118  1.04D-07  2.44D-08      3.7
                70     -216.8179282118  9.87D-08  1.16D-08      3.7


       Final UHF  results 
       ------------------ 

         Total SCF energy =   -216.817928211776
      One electron energy =   -493.757344701476
      Two electron energy =    171.161468391814
 Nuclear repulsion energy =    105.777948097886

                       Sz =      0.5000
                 Sz(Sz+1) =      0.7500
                      S^2 =      0.8012

        Time for solution =      3.4s


          Final alpha eigenvalues
          -----------------------

              1      
    1  -16.1407
    2  -16.1396
    3  -16.0959
    4  -16.0955
    5   -2.0420
    6   -1.4415
    7   -1.3965
    8   -1.3797
    9   -1.0518
   10   -0.9568
   11   -0.9210
   12   -0.9120
   13   -0.9021
   14   -0.8846
   15   -0.1882
   16   -0.1430
   17   -0.1416
   18   -0.0601
   19   -0.0478
   20   -0.0276
   21    0.4354
   22    0.5393
   23    0.5615
   24    0.5686

          Final beta eigenvalues
          ----------------------

              1      
    1  -16.1192
    2  -16.1186
    3  -16.0991
    4  -16.0987
    5   -2.0118
    6   -1.3816
    7   -1.3440
    8   -1.3303
    9   -0.9985
   10   -0.9156
   11   -0.8881
   12   -0.8854
   13   -0.8836
   14   -0.4357
   15   -0.1415
   16   -0.1236
   17   -0.0726
   18   -0.0311
   19   -0.0188
   20   -0.0141
   21    0.4549
   22    0.5754
   23    0.5773
   24    0.5846

                    UHF Final Alpha Molecular Orbital Analysis
                    ------------------------------------------

 Vector    4  Occ=1.000000D+00  E=-1.609549D+01
              MO Center=  2.6D-01, -2.7D-01, -5.2D-01, r^2= 4.2D-01
   Bfn.  Coefficient  Atom+Function         Bfn.  Coefficient  Atom+Function  
  ----- ------------  ---------------      ----- ------------  ---------------
    43      0.860273  4 N  s                 29     -0.492273  3 N  s          

 Vector    5  Occ=1.000000D+00  E=-2.042040D+00
              MO Center=  6.5D-05,  2.8D-03,  2.8D-02, r^2= 6.8D-01
   Bfn.  Coefficient  Atom+Function         Bfn.  Coefficient  Atom+Function  
  ----- ------------  ---------------      ----- ------------  ---------------
     2      0.289053  1 N  s                 16      0.287298  2 N  s          
    30      0.251028  3 N  s                 44      0.249014  4 N  s          

 Vector    6  Occ=1.000000D+00  E=-1.441473D+00
              MO Center= -1.3D-03,  2.7D-03,  1.7D-01, r^2= 1.3D+00
   Bfn.  Coefficient  Atom+Function         Bfn.  Coefficient  Atom+Function  
  ----- ------------  ---------------      ----- ------------  ---------------
    16     -0.442982  2 N  s                  2      0.434931  1 N  s          
    17     -0.347250  2 N  s                  3      0.340658  1 N  s          
    15     -0.199629  2 N  s                  1      0.195704  1 N  s          

 Vector    7  Occ=1.000000D+00  E=-1.396532D+00
              MO Center=  8.0D-03, -5.8D-04,  1.0D-02, r^2= 1.3D+00
   Bfn.  Coefficient  Atom+Function         Bfn.  Coefficient  Atom+Function  
  ----- ------------  ---------------      ----- ------------  ---------------
    44     -0.302548  4 N  s                  2      0.298393  1 N  s          
    16      0.284638  2 N  s                 30     -0.280744  3 N  s          
     3      0.266994  1 N  s                 45     -0.268176  4 N  s          
    17      0.253868  2 N  s                 31     -0.250941  3 N  s          

 Vector    8  Occ=1.000000D+00  E=-1.379700D+00
              MO Center= -1.8D-03,  6.3D-03, -9.3D-02, r^2= 1.3D+00
   Bfn.  Coefficient  Atom+Function         Bfn.  Coefficient  Atom+Function  
  ----- ------------  ---------------      ----- ------------  ---------------
    30      0.400646  3 N  s                 44     -0.384693  4 N  s          
    31      0.359177  3 N  s                 45     -0.343574  4 N  s          
    29      0.186219  3 N  s                 43     -0.178898  4 N  s          
    18      0.166640  2 N  px                 4      0.164774  1 N  px         
     5     -0.164497  1 N  py                19     -0.158450  2 N  py         

 Vector    9  Occ=1.000000D+00  E=-1.051838D+00
              MO Center=  5.3D-03,  1.0D-02,  2.9D-01, r^2= 1.8D+00
   Bfn.  Coefficient  Atom+Function         Bfn.  Coefficient  Atom+Function  
  ----- ------------  ---------------      ----- ------------  ---------------
     4      0.278006  1 N  px                 5      0.274264  1 N  py         
    18     -0.272006  2 N  px                19     -0.267647  2 N  py         
     2     -0.203576  1 N  s                 16     -0.203137  2 N  s          
    17     -0.192251  2 N  s                  3     -0.184163  1 N  s          

 Vector   10  Occ=1.000000D+00  E=-9.567982D-01
              MO Center= -2.2D-03,  3.4D-04, -1.0D-01, r^2= 1.7D+00
   Bfn.  Coefficient  Atom+Function         Bfn.  Coefficient  Atom+Function  
  ----- ------------  ---------------      ----- ------------  ---------------
    20      0.293213  2 N  pz                 6      0.277971  1 N  pz         
    30     -0.209252  3 N  s                 44     -0.209461  4 N  s          
    31     -0.174203  3 N  s                 45     -0.174993  4 N  s          
    34     -0.172009  3 N  pz                48     -0.170006  4 N  pz         
     4     -0.162439  1 N  px                18      0.158621  2 N  px         

 Vector   11  Occ=1.000000D+00  E=-9.209878D-01
              MO Center= -1.6D-02, -2.2D-03,  4.0D-01, r^2= 1.6D+00
   Bfn.  Coefficient  Atom+Function         Bfn.  Coefficient  Atom+Function  
  ----- ------------  ---------------      ----- ------------  ---------------
     6      0.329283  1 N  pz                20     -0.319211  2 N  pz         
    16      0.244763  2 N  s                  2     -0.234207  1 N  s          
     9     -0.191451  1 N  pz                32     -0.191723  3 N  px         
    23      0.186436  2 N  pz                33     -0.175756  3 N  py         
    46     -0.173102  4 N  px                47     -0.169391  4 N  py         

 Vector   12  Occ=1.000000D+00  E=-9.120447D-01
              MO Center=  2.2D-02,  3.5D-03, -3.8D-01, r^2= 1.7D+00
   Bfn.  Coefficient  Atom+Function         Bfn.  Coefficient  Atom+Function  
  ----- ------------  ---------------      ----- ------------  ---------------
    44     -0.289332  4 N  s                 30      0.282673  3 N  s          
    34      0.278988  3 N  pz                48     -0.268258  4 N  pz         
     5      0.218093  1 N  py                 4     -0.211154  1 N  px         
    45     -0.194624  4 N  s                 19      0.191790  2 N  py         
    31      0.188900  3 N  s                 18     -0.186121  2 N  px         

 Vector   13  Occ=1.000000D+00  E=-9.020891D-01
              MO Center= -1.1D-02, -2.1D-02,  1.1D-01, r^2= 1.4D+00
   Bfn.  Coefficient  Atom+Function         Bfn.  Coefficient  Atom+Function  
  ----- ------------  ---------------      ----- ------------  ---------------
    18     -0.287948  2 N  px                19      0.286863  2 N  py         
     5     -0.273427  1 N  py                 4      0.262769  1 N  px         
    33     -0.215993  3 N  py                47      0.215496  4 N  py         
    46      0.203949  4 N  px                32     -0.185373  3 N  px         
    21      0.166645  2 N  px                22     -0.163501  2 N  py         

 Vector   14  Occ=1.000000D+00  E=-8.846429D-01
              MO Center= -2.4D-03,  6.0D-03, -2.1D-01, r^2= 1.5D+00
   Bfn.  Coefficient  Atom+Function         Bfn.  Coefficient  Atom+Function  
  ----- ------------  ---------------      ----- ------------  ---------------
    32      0.260569  3 N  px                46     -0.259996  4 N  px         
    33     -0.243830  3 N  py                48     -0.244562  4 N  pz         
    47      0.235149  4 N  py                34     -0.233652  3 N  pz         
     6      0.197774  1 N  pz                20      0.196218  2 N  pz         
    35     -0.156358  3 N  px                49      0.154063  4 N  px         

 Vector   15  Occ=0.000000D+00  E=-1.881815D-01
              MO Center=  1.1D-03, -2.0D-03,  3.4D-01, r^2= 1.6D+00
   Bfn.  Coefficient  Atom+Function         Bfn.  Coefficient  Atom+Function  
  ----- ------------  ---------------      ----- ------------  ---------------
     9      0.398151  1 N  pz                23     -0.393731  2 N  pz         
     6     -0.351103  1 N  pz                20      0.348735  2 N  pz         
     7     -0.309122  1 N  px                21     -0.307043  2 N  px         
    22     -0.299028  2 N  py                 8     -0.292343  1 N  py         
     4      0.248763  1 N  px                18      0.246878  2 N  px         

 Vector   16  Occ=0.000000D+00  E=-1.429532D-01
              MO Center= -1.3D-01, -1.4D-01, -1.5D-01, r^2= 1.7D+00
   Bfn.  Coefficient  Atom+Function         Bfn.  Coefficient  Atom+Function  
  ----- ------------  ---------------      ----- ------------  ---------------
    50      0.410327  4 N  py                35     -0.399581  3 N  px         
    22     -0.382210  2 N  py                21      0.374438  2 N  px         
    47     -0.334415  4 N  py                32      0.326402  3 N  px         
    19      0.316211  2 N  py                18     -0.310821  2 N  px         
    37      0.244823  3 N  pz                51     -0.231167  4 N  pz         

 Vector   17  Occ=0.000000D+00  E=-1.415821D-01
              MO Center=  1.4D-01,  1.2D-01, -2.3D-01, r^2= 1.7D+00
   Bfn.  Coefficient  Atom+Function         Bfn.  Coefficient  Atom+Function  
  ----- ------------  ---------------      ----- ------------  ---------------
    51     -0.443950  4 N  pz                37      0.422980  3 N  pz         
     8     -0.373160  1 N  py                48      0.356464  4 N  pz         
    36      0.350627  3 N  py                34     -0.345000  3 N  pz         
    49     -0.342971  4 N  px                 7      0.333231  1 N  px         
     5      0.301776  1 N  py                33     -0.292002  3 N  py         

 Vector   18  Occ=0.000000D+00  E=-6.014300D-02
              MO Center= -3.0D-02, -2.0D-02, -4.6D-02, r^2= 1.8D+00
   Bfn.  Coefficient  Atom+Function         Bfn.  Coefficient  Atom+Function  
  ----- ------------  ---------------      ----- ------------  ---------------
    17      1.152331  2 N  s                  3     -0.966749  1 N  s          
    22      0.582530  2 N  py                21      0.563506  2 N  px         
     8      0.527875  1 N  py                 7      0.519566  1 N  px         
    36      0.413788  3 N  py                23     -0.398907  2 N  pz         
    16      0.367493  2 N  s                 49      0.368492  4 N  px         

 Vector   19  Occ=0.000000D+00  E=-4.781004D-02
              MO Center=  2.3D-02,  2.2D-02, -3.4D-02, r^2= 1.8D+00
   Bfn.  Coefficient  Atom+Function         Bfn.  Coefficient  Atom+Function  
  ----- ------------  ---------------      ----- ------------  ---------------
     3      0.934255  1 N  s                 45     -0.867432  4 N  s          
    31     -0.733044  3 N  s                  9     -0.698030  1 N  pz         
    51     -0.695565  4 N  pz                37     -0.678058  3 N  pz         
    17      0.659031  2 N  s                 23     -0.615436  2 N  pz         
     8     -0.291915  1 N  py                 6      0.286268  1 N  pz         

 Vector   20  Occ=0.000000D+00  E=-2.756822D-02
              MO Center= -1.7D-03,  9.2D-03, -1.4D-01, r^2= 1.8D+00
   Bfn.  Coefficient  Atom+Function         Bfn.  Coefficient  Atom+Function  
  ----- ------------  ---------------      ----- ------------  ---------------
    31      1.225830  3 N  s                 45     -1.113844  4 N  s          
    35      0.680423  3 N  px                49      0.647909  4 N  px         
    36     -0.641283  3 N  py                50     -0.623601  4 N  py         
     7      0.368674  1 N  px                30      0.343590  3 N  s          
    21      0.331538  2 N  px                37      0.321940  3 N  pz         

 Vector   21  Occ=0.000000D+00  E= 4.353837D-01
              MO Center=  1.7D-02,  2.0D-02,  8.5D-02, r^2= 3.1D+00
   Bfn.  Coefficient  Atom+Function         Bfn.  Coefficient  Atom+Function  
  ----- ------------  ---------------      ----- ------------  ---------------
    17     -0.805239  2 N  s                  2      0.797625  1 N  s          
    16      0.792309  2 N  s                  3     -0.781667  1 N  s          
    44      0.648632  4 N  s                 30      0.644954  3 N  s          
    45     -0.419991  4 N  s                 31     -0.406327  3 N  s          
     4     -0.171323  1 N  px                 5     -0.170211  1 N  py         

 Vector   22  Occ=0.000000D+00  E= 5.392956D-01
              MO Center= -1.3D-03,  2.8D-03,  4.0D-01, r^2= 2.9D+00
   Bfn.  Coefficient  Atom+Function         Bfn.  Coefficient  Atom+Function  
  ----- ------------  ---------------      ----- ------------  ---------------
     7      0.792315  1 N  px                 8      0.783843  1 N  py         
    21      0.785900  2 N  px                22      0.770667  2 N  py         
     3     -0.567615  1 N  s                 17      0.570099  2 N  s          
     4      0.424970  1 N  px                18      0.420465  2 N  px         
     5      0.416976  1 N  py                19      0.409475  2 N  py         

 Vector   23  Occ=0.000000D+00  E= 5.615453D-01
              MO Center=  4.4D-03,  6.1D-04,  3.2D-01, r^2= 2.6D+00
   Bfn.  Coefficient  Atom+Function         Bfn.  Coefficient  Atom+Function  
  ----- ------------  ---------------      ----- ------------  ---------------
     9      0.992729  1 N  pz                23      0.994072  2 N  pz         
    45      0.883154  4 N  s                  3     -0.837394  1 N  s          
    17     -0.826568  2 N  s                 31      0.780188  3 N  s          
    51      0.747401  4 N  pz                37      0.715704  3 N  pz         
     6      0.578181  1 N  pz                20      0.577226  2 N  pz         

 Vector   24  Occ=0.000000D+00  E= 5.686303D-01
              MO Center=  2.0D-03,  1.0D-02,  4.9D-02, r^2= 2.6D+00
   Bfn.  Coefficient  Atom+Function         Bfn.  Coefficient  Atom+Function  
  ----- ------------  ---------------      ----- ------------  ---------------
    31      1.230161  3 N  s                 45     -1.143558  4 N  s          
    36     -0.770004  3 N  py                35      0.758708  3 N  px         
    50     -0.739787  4 N  py                49      0.731550  4 N  px         
    22     -0.506192  2 N  py                 7      0.496745  1 N  px         
     8     -0.497867  1 N  py                21      0.471460  2 N  px         


                     UHF Final Beta Molecular Orbital Analysis
                     -----------------------------------------

 Vector    4  Occ=1.000000D+00  E=-1.609870D+01
              MO Center= -3.1D-01,  3.1D-01, -5.2D-01, r^2= 3.6D-01
   Bfn.  Coefficient  Atom+Function         Bfn.  Coefficient  Atom+Function  
  ----- ------------  ---------------      ----- ------------  ---------------
    29      0.886780  3 N  s                 43     -0.442430  4 N  s          

 Vector    5  Occ=1.000000D+00  E=-2.011753D+00
              MO Center=  3.6D-04,  2.5D-03, -2.2D-02, r^2= 6.6D-01
   Bfn.  Coefficient  Atom+Function         Bfn.  Coefficient  Atom+Function  
  ----- ------------  ---------------      ----- ------------  ---------------
    30      0.273901  3 N  s                 44      0.272571  4 N  s          
     2      0.258088  1 N  s                 16      0.256028  2 N  s          

 Vector    6  Occ=1.000000D+00  E=-1.381637D+00
              MO Center=  7.5D-03, -4.7D-03, -1.3D-01, r^2= 1.3D+00
   Bfn.  Coefficient  Atom+Function         Bfn.  Coefficient  Atom+Function  
  ----- ------------  ---------------      ----- ------------  ---------------
    44     -0.419097  4 N  s                 30      0.402208  3 N  s          
    45     -0.368415  4 N  s                 31      0.355742  3 N  s          
    43     -0.193140  4 N  s                 29      0.185374  3 N  s          

 Vector    7  Occ=1.000000D+00  E=-1.344045D+00
              MO Center= -1.5D-02, -7.8D-03,  2.3D-02, r^2= 1.3D+00
   Bfn.  Coefficient  Atom+Function         Bfn.  Coefficient  Atom+Function  
  ----- ------------  ---------------      ----- ------------  ---------------
    16      0.339384  2 N  s                  2      0.298360  1 N  s          
    30     -0.291770  3 N  s                 44     -0.272398  4 N  s          
    17      0.266822  2 N  s                 31     -0.247360  3 N  s          
     3      0.229963  1 N  s                 45     -0.227524  4 N  s          
    15      0.152903  2 N  s          

 Vector    8  Occ=1.000000D+00  E=-1.330291D+00
              MO Center=  6.6D-03,  1.1D-02,  1.1D-01, r^2= 1.2D+00
   Bfn.  Coefficient  Atom+Function         Bfn.  Coefficient  Atom+Function  
  ----- ------------  ---------------      ----- ------------  ---------------
     2      0.416734  1 N  s                  3      0.388575  1 N  s          
    16     -0.388026  2 N  s                 17     -0.361518  2 N  s          
     1      0.193411  1 N  s                 15     -0.180133  2 N  s          
    46     -0.167803  4 N  px                33     -0.163587  3 N  py         
    32     -0.161181  3 N  px                47     -0.154838  4 N  py         

 Vector    9  Occ=1.000000D+00  E=-9.985188D-01
              MO Center=  1.7D-03,  1.8D-03, -1.4D-01, r^2= 1.9D+00
   Bfn.  Coefficient  Atom+Function         Bfn.  Coefficient  Atom+Function  
  ----- ------------  ---------------      ----- ------------  ---------------
     6      0.212411  1 N  pz                20      0.212528  2 N  pz         
    31     -0.208546  3 N  s                 45     -0.208584  4 N  s          
    32     -0.187631  3 N  px                46      0.187371  4 N  px         
    33      0.185249  3 N  py                44     -0.185006  4 N  s          
    47     -0.184810  4 N  py                30     -0.183776  3 N  s          

 Vector   10  Occ=1.000000D+00  E=-9.156202D-01
              MO Center= -1.8D-02, -8.0D-03,  4.6D-01, r^2= 1.6D+00
   Bfn.  Coefficient  Atom+Function         Bfn.  Coefficient  Atom+Function  
  ----- ------------  ---------------      ----- ------------  ---------------
     6      0.321340  1 N  pz                20     -0.314072  2 N  pz         
    16      0.283536  2 N  s                  2     -0.272655  1 N  s          
     9     -0.190250  1 N  pz                17      0.190135  2 N  s          
    32     -0.187812  3 N  px                23      0.186810  2 N  pz         
     3     -0.181617  1 N  s                 33     -0.177847  3 N  py         

 Vector   11  Occ=1.000000D+00  E=-8.880998D-01
              MO Center=  1.1D-01,  3.8D-02, -8.1D-02, r^2= 1.5D+00
   Bfn.  Coefficient  Atom+Function         Bfn.  Coefficient  Atom+Function  
  ----- ------------  ---------------      ----- ------------  ---------------
    47      0.330217  4 N  py                 4      0.299680  1 N  px         
     5     -0.275866  1 N  py                33     -0.227156  3 N  py         
    32     -0.199687  3 N  px                50     -0.200423  4 N  py         
    34     -0.173753  3 N  pz                 7     -0.168604  1 N  px         
     8      0.154923  1 N  py                18     -0.151608  2 N  px         

 Vector   12  Occ=1.000000D+00  E=-8.854285D-01
              MO Center= -5.7D-02, -1.2D-01, -3.0D-01, r^2= 1.6D+00
   Bfn.  Coefficient  Atom+Function         Bfn.  Coefficient  Atom+Function  
  ----- ------------  ---------------      ----- ------------  ---------------
    19      0.295127  2 N  py                34      0.276665  3 N  pz         
    18     -0.261704  2 N  px                44     -0.245960  4 N  s          
    48     -0.240125  4 N  pz                46      0.229325  4 N  px         
    30      0.218623  3 N  s                 33     -0.187023  3 N  py         
    45     -0.169190  4 N  s                 22     -0.160255  2 N  py         

 Vector   13  Occ=1.000000D+00  E=-8.836300D-01
              MO Center= -4.3D-02,  7.6D-02, -1.4D-01, r^2= 1.6D+00
   Bfn.  Coefficient  Atom+Function         Bfn.  Coefficient  Atom+Function  
  ----- ------------  ---------------      ----- ------------  ---------------
    32      0.299344  3 N  px                48     -0.268831  4 N  pz         
    46     -0.262654  4 N  px                33     -0.216055  3 N  py         
    35     -0.185786  3 N  px                30      0.173142  3 N  s          
     5      0.169854  1 N  py                47      0.165176  4 N  py         
    34     -0.157421  3 N  pz                49      0.157116  4 N  px         

 Vector   14  Occ=0.000000D+00  E=-4.356759D-01
              MO Center=  6.9D-03,  1.2D-02,  2.9D-01, r^2= 1.6D+00
   Bfn.  Coefficient  Atom+Function         Bfn.  Coefficient  Atom+Function  
  ----- ------------  ---------------      ----- ------------  ---------------
     4      0.250408  1 N  px                18     -0.249713  2 N  px         
     5      0.241285  1 N  py                19     -0.236929  2 N  py         
     7     -0.197789  1 N  px                20     -0.198080  2 N  pz         
    21      0.195784  2 N  px                 6     -0.189505  1 N  pz         
     8     -0.190240  1 N  py                22      0.185944  2 N  py         

 Vector   15  Occ=0.000000D+00  E=-1.414879D-01
              MO Center=  2.2D-03, -2.1D-02,  1.5D-02, r^2= 1.7D+00
   Bfn.  Coefficient  Atom+Function         Bfn.  Coefficient  Atom+Function  
  ----- ------------  ---------------      ----- ------------  ---------------
    21     -0.341866  2 N  px                50     -0.341109  4 N  py         
    22      0.336300  2 N  py                49     -0.333674  4 N  px         
     7      0.327111  1 N  px                 8     -0.326927  1 N  py         
    36      0.324900  3 N  py                35      0.322044  3 N  px         
    18      0.278355  2 N  px                19     -0.276258  2 N  py         

 Vector   16  Occ=0.000000D+00  E=-1.235689D-01
              MO Center=  1.1D-02,  2.8D-03, -2.8D-01, r^2= 1.7D+00
   Bfn.  Coefficient  Atom+Function         Bfn.  Coefficient  Atom+Function  
  ----- ------------  ---------------      ----- ------------  ---------------
    51     -0.484934  4 N  pz                37      0.475057  3 N  pz         
    48      0.384419  4 N  pz                34     -0.378911  3 N  pz         
     8     -0.251127  1 N  py                36      0.251196  3 N  py         
    49     -0.243687  4 N  px                22     -0.233221  2 N  py         
    35     -0.231333  3 N  px                 7      0.228977  1 N  px         

 Vector   17  Occ=0.000000D+00  E=-7.261565D-02
              MO Center= -2.2D-02,  3.7D-03, -1.2D-01, r^2= 1.7D+00
   Bfn.  Coefficient  Atom+Function         Bfn.  Coefficient  Atom+Function  
  ----- ------------  ---------------      ----- ------------  ---------------
    17     -0.631501  2 N  s                  3      0.618454  1 N  s          
    23      0.570853  2 N  pz                 9     -0.550347  1 N  pz         
    20     -0.405604  2 N  pz                36     -0.405366  3 N  py         
     6      0.397106  1 N  pz                50     -0.384961  4 N  py         
    35     -0.380783  3 N  px                49     -0.366695  4 N  px         

 Vector   18  Occ=0.000000D+00  E=-3.114871D-02
              MO Center=  1.7D-02, -1.4D-02, -7.7D-02, r^2= 1.8D+00
   Bfn.  Coefficient  Atom+Function         Bfn.  Coefficient  Atom+Function  
  ----- ------------  ---------------      ----- ------------  ---------------
    45      1.223447  4 N  s                 31     -1.065070  3 N  s          
    50      0.651869  4 N  py                49     -0.634302  4 N  px         
    36      0.603355  3 N  py                35     -0.599437  3 N  px         
     8      0.425300  1 N  py                22      0.379960  2 N  py         
    51      0.356926  4 N  pz                44      0.352804  4 N  s          

 Vector   19  Occ=0.000000D+00  E=-1.879050D-02
              MO Center=  7.0D-02,  8.7D-02,  2.8D-02, r^2= 1.9D+00
   Bfn.  Coefficient  Atom+Function         Bfn.  Coefficient  Atom+Function  
  ----- ------------  ---------------      ----- ------------  ---------------
    17      1.126881  2 N  s                 31     -0.829018  3 N  s          
    45     -0.682892  4 N  s                  9     -0.663757  1 N  pz         
    37     -0.663288  3 N  pz                51     -0.623570  4 N  pz         
    23     -0.620403  2 N  pz                22      0.459388  2 N  py         
     3      0.453483  1 N  s                 21      0.426415  2 N  px         

 Vector   20  Occ=0.000000D+00  E=-1.406155D-02
              MO Center= -7.6D-02, -5.3D-02,  3.3D-01, r^2= 1.9D+00
   Bfn.  Coefficient  Atom+Function         Bfn.  Coefficient  Atom+Function  
  ----- ------------  ---------------      ----- ------------  ---------------
     3      1.172760  1 N  s                  7     -0.762899  1 N  px         
     8     -0.659075  1 N  py                21     -0.606067  2 N  px         
    17     -0.516646  2 N  s                 22     -0.511220  2 N  py         
    31     -0.475137  3 N  s                  4      0.343978  1 N  px         
     2      0.341831  1 N  s                 37     -0.319842  3 N  pz         

 Vector   21  Occ=0.000000D+00  E= 4.549406D-01
              MO Center= -4.6D-03, -6.3D-03,  1.3D-01, r^2= 3.1D+00
   Bfn.  Coefficient  Atom+Function         Bfn.  Coefficient  Atom+Function  
  ----- ------------  ---------------      ----- ------------  ---------------
    16      0.745321  2 N  s                  2      0.738955  1 N  s          
    44      0.709903  4 N  s                 30      0.704179  3 N  s          
    45     -0.646871  4 N  s                 31     -0.633569  3 N  s          
     3     -0.564256  1 N  s                 17     -0.565514  2 N  s          
     9     -0.183505  1 N  pz                23     -0.182173  2 N  pz         

 Vector   22  Occ=0.000000D+00  E= 5.754345D-01
              MO Center=  7.0D-02, -8.3D-02, -5.9D-02, r^2= 2.9D+00
   Bfn.  Coefficient  Atom+Function         Bfn.  Coefficient  Atom+Function  
  ----- ------------  ---------------      ----- ------------  ---------------
    51      0.800353  4 N  pz                23      0.779891  2 N  pz         
     9      0.744656  1 N  pz                37      0.663725  3 N  pz         
    45      0.635147  4 N  s                 17     -0.603145  2 N  s          
     3     -0.506187  1 N  s                 48      0.475562  4 N  pz         
    20      0.466233  2 N  pz                 6      0.457602  1 N  pz         

 Vector   23  Occ=0.000000D+00  E= 5.773285D-01
              MO Center= -8.1D-02,  6.4D-02, -1.6D-01, r^2= 2.8D+00
   Bfn.  Coefficient  Atom+Function         Bfn.  Coefficient  Atom+Function  
  ----- ------------  ---------------      ----- ------------  ---------------
    31      1.021178  3 N  s                 36     -0.853172  3 N  py         
    45     -0.857094  4 N  s                 50     -0.755863  4 N  py         
    35      0.748079  3 N  px                49      0.643747  4 N  px         
    22     -0.540878  2 N  py                37      0.512389  3 N  pz         
    33     -0.449283  3 N  py                 8     -0.447024  1 N  py         

 Vector   24  Occ=0.000000D+00  E= 5.845894D-01
              MO Center=  2.8D-02,  2.9D-02,  2.9D-01, r^2= 2.8D+00
   Bfn.  Coefficient  Atom+Function         Bfn.  Coefficient  Atom+Function  
  ----- ------------  ---------------      ----- ------------  ---------------
     3      0.885534  1 N  s                 17     -0.800880  2 N  s          
     7     -0.761045  1 N  px                21     -0.716160  2 N  px         
     8     -0.679718  1 N  py                22     -0.639177  2 N  py         
     9     -0.579972  1 N  pz                35     -0.516344  3 N  px         
    23      0.482528  2 N  pz                49     -0.481691  4 N  px         


 center of mass
 --------------
 x =   0.00000000 y =   0.00000000 z =   0.00000000

 moments of inertia (a.u.)
 ------------------
         108.180184876804          -0.260030490378           0.260030490378
          -0.260030490378         107.656373456283           0.003750439765
           0.260030490378           0.003750439765         108.696495417795

  Mulliken analysis of the total density
  --------------------------------------

    Atom       Charge   Shell Charges
 -----------   ------   -------------------------------------------------------
    1 N    7     6.71   1.99  1.20  0.70  2.00  0.75  0.07
    2 N    7     6.70   1.99  1.21  0.70  1.99  0.75  0.07
    3 N    7     6.80   1.99  1.19  0.75  2.01  0.78  0.07
    4 N    7     6.79   1.99  1.19  0.75  2.01  0.78  0.07

  Mulliken analysis of the alpha density
  --------------------------------------

    Atom       Charge   Shell Charges
 -----------   ------   -------------------------------------------------------
    1 N    7     3.66   1.00  0.62  0.34  1.21  0.45  0.04
    2 N    7     3.66   1.00  0.62  0.35  1.20  0.45  0.04
    3 N    7     3.35   1.00  0.59  0.37  0.97  0.38  0.04
    4 N    7     3.34   1.00  0.60  0.37  0.97  0.38  0.04

   Mulliken analysis of the beta density
   -------------------------------------

    Atom       Charge   Shell Charges
 -----------   ------   -------------------------------------------------------
    1 N    7     3.05   1.00  0.58  0.35  0.79  0.29  0.03
    2 N    7     3.05   1.00  0.59  0.35  0.79  0.29  0.03
    3 N    7     3.45   1.00  0.59  0.38  1.04  0.41  0.04
    4 N    7     3.45   1.00  0.60  0.38  1.04  0.41  0.04

   Mulliken analysis of the spin density
   -------------------------------------

    Atom       Charge   Shell Charges
 -----------   ------   -------------------------------------------------------
    1 N    7     0.61  -0.00  0.04 -0.01  0.42  0.16  0.00
    2 N    7     0.61  -0.00  0.03 -0.01  0.42  0.16  0.00
    3 N    7    -0.10   0.00  0.00 -0.01 -0.07 -0.03  0.00
    4 N    7    -0.11   0.00 -0.00 -0.01 -0.08 -0.03  0.00

       Multipole analysis of the density wrt the origin
       ------------------------------------------------

     L   x y z        total         alpha         beta         nuclear
     -   - - -        -----         -----         ----         -------
     0   0 0 0      1.000000    -14.000000    -13.000000     28.000000

     1   1 0 0      0.010855     -0.001247      0.012102      0.000000
     1   0 1 0      0.013653     -0.014513      0.028166      0.000000
     1   0 0 1      0.003797     -0.431786      0.435583      0.000000

     2   2 0 0    -13.743214    -21.448951    -19.331505     27.037242
     2   1 1 0      0.921563     -0.585680      1.377257      0.129987
     2   1 0 1     -0.001151      0.057045      0.071791     -0.129987
     2   0 2 0    -13.768554    -21.557980    -19.509665     27.299090
     2   0 1 1      0.007428      0.007514      0.001789     -0.001875
     2   0 0 2    -14.257436    -21.106792    -19.929788     26.779143


 Parallel integral file used      28 records with       0 large values

 MOLDEN output will be written to the file ./N4.molden
  do_norm_janpa  F
  do_norm_nwchem  F
  molden scftype: UHF                  spinref:                     2
  
  Molden file created 
  If you plan to use JANPA 
    run the .molden file through 
    molden2molden.jar -NormalizeBF to get the
    correct Molden normalization 
   

 Task  times  cpu:        3.7s     wall:        3.4s
 Summary of allocated global arrays
-----------------------------------
  No active global arrays



                         GA Statistics for process    0
                         ------------------------------

       create   destroy   get      put      acc     scatter   gather  read&inc
calls: 4313     4313     4.44e+04 2.36e+04 8.51e+04  876        0       61     
number of processes/call 1.00e+00 1.00e+00 1.00e+00 0.00e+00 0.00e+00
bytes total:             1.58e+08 1.18e+08 2.47e+07 4.47e+03 0.00e+00 4.88e+02
bytes remote:            0.00e+00 0.00e+00 0.00e+00 0.00e+00 0.00e+00 0.00e+00
Max memory consumed for GA by this process: 570104 bytes
MA_summarize_allocated_blocks: starting scan ...
MA_summarize_allocated_blocks: scan completed: 0 heap blocks, 0 stack blocks
MA usage statistics:

	allocation statistics:
					      heap	     stack
					      ----	     -----
	current number of blocks	         0	         0
	maximum number of blocks	        20	        14
	current total bytes		         0	         0
	maximum total bytes		  22036656	  22511752
	maximum total K-bytes		     22037	     22512
	maximum total M-bytes		        23	        23


                                NWChem Input Module
                                -------------------





                                     CITATION
                                     --------
                Please cite the following reference when publishing
                           results obtained with NWChem:

                 M. Valiev, E.J. Bylaska, N. Govind, K. Kowalski,
              T.P. Straatsma, H.J.J. van Dam, D. Wang, J. Nieplocha,
                        E. Apra, T.L. Windus, W.A. de Jong
                 "NWChem: a comprehensive and scalable open-source
                  solution for large scale molecular simulations"
                      Comput. Phys. Commun. 181, 1477 (2010)
                           doi:10.1016/j.cpc.2010.04.018

                                      AUTHORS
                                      -------
          E. Apra, E. J. Bylaska, W. A. de Jong, N. Govind, K. Kowalski,
       T. P. Straatsma, M. Valiev, H. J. J. van Dam, D. Wang, T. L. Windus,
        J. Hammond, J. Autschbach, K. Bhaskaran-Nair, J. Brabec, K. Lopata,
    S. A. Fischer, S. Krishnamoorthy, M. Jacquelin, W. Ma, M. Klemm, O. Villa,
      Y. Chen, V. Anisimov, F. Aquino, S. Hirata, M. T. Hackler, V. Konjkov,
            D. Mejia-Rodriguez, T. Risthaus, M. Malagoli, A. Marenich,
   A. Otero-de-la-Roza, J. Mullin, P. Nichols, R. Peverati, J. Pittner, Y. Zhao,
        P.-D. Fan, A. Fonari, M. J. Williamson, R. J. Harrison, J. R. Rehr,
      M. Dupuis, D. Silverstein, D. M. A. Smith, J. Nieplocha, V. Tipparaju,
    M. Krishnan, B. E. Van Kuiken, A. Vazquez-Mayagoitia, L. Jensen, M. Swart,
      Q. Wu, T. Van Voorhis, A. A. Auer, M. Nooijen, L. D. Crosby, E. Brown,
      G. Cisneros, G. I. Fann, H. Fruchtl, J. Garza, K. Hirao, R. A. Kendall,
      J. A. Nichols, K. Tsemekhman, K. Wolinski, J. Anchell, D. E. Bernholdt,
      P. Borowski, T. Clark, D. Clerc, H. Dachsel, M. J. O. Deegan, K. Dyall,
    D. Elwood, E. Glendening, M. Gutowski, A. C. Hess, J. Jaffe, B. G. Johnson,
     J. Ju, R. Kobayashi, R. Kutteh, Z. Lin, R. Littlefield, X. Long, B. Meng,
      T. Nakajima, S. Niu, L. Pollack, M. Rosing, K. Glaesemann, G. Sandrone,
      M. Stave, H. Taylor, G. Thomas, J. H. van Lenthe, A. T. Wong, Z. Zhang.

 Total times  cpu:        3.8s     wall:        3.4s
