[Molden Format]
[Title]
 Molden file created by orca_2mkl for BaseName=./N4

[Atoms] AU
N    1   7          0.9826575896         1.0015548510         0.9637603283 
N    2   7         -0.9826575896        -0.9826575896         0.9826575896 
N    3   7         -0.9826575896         0.9826575896        -0.9826575896 
N    4   7          0.9826575896        -0.9826575896        -0.9826575896 
[GTO]
  1 0
s   6 1.0 
    19730.8006470000         0.6956035199
     2957.8958745000         1.2986099328
      673.2213359500         2.2190880635
      190.6824949400         3.4636607549
       62.2954418980         4.6967555531
       22.6541611820         4.9522510945
s   2 1.0 
        8.9791477428         2.3880677979
        3.6863002370         0.7337878750
s   1 1.0 
        0.8466007680         0.6290267082
s   1 1.0 
        0.3364713377         0.3148626514
s   1 1.0 
        0.1364765367         0.1600308040
p   4 1.0 
       49.2003805100         2.1264813968
       11.3467905370         2.3279367185
        3.4273972411         2.0485729192
        1.1785525134         1.2607319854
p   1 1.0 
        0.4164220497         0.4768230427
p   1 1.0 
        0.1426082601         0.1249168256
d   1 1.0 
        1.6540000000         6.8771297418
d   1 1.0 
        0.4690000000         0.7577440909
f   1 1.0 
        1.0930000000         6.9645882147

  2 0
s   6 1.0 
    19730.8006470000         0.6956035199
     2957.8958745000         1.2986099328
      673.2213359500         2.2190880635
      190.6824949400         3.4636607549
       62.2954418980         4.6967555531
       22.6541611820         4.9522510945
s   2 1.0 
        8.9791477428         2.3880677979
        3.6863002370         0.7337878750
s   1 1.0 
        0.8466007680         0.6290267082
s   1 1.0 
        0.3364713377         0.3148626514
s   1 1.0 
        0.1364765367         0.1600308040
p   4 1.0 
       49.2003805100         2.1264813968
       11.3467905370         2.3279367185
        3.4273972411         2.0485729192
        1.1785525134         1.2607319854
p   1 1.0 
        0.4164220497         0.4768230427
p   1 1.0 
        0.1426082601         0.1249168256
d   1 1.0 
        1.6540000000         6.8771297418
d   1 1.0 
        0.4690000000         0.7577440909
f   1 1.0 
        1.0930000000         6.9645882147

  3 0
s   6 1.0 
    19730.8006470000         0.6956035199
     2957.8958745000         1.2986099328
      673.2213359500         2.2190880635
      190.6824949400         3.4636607549
       62.2954418980         4.6967555531
       22.6541611820         4.9522510945
s   2 1.0 
        8.9791477428         2.3880677979
        3.6863002370         0.7337878750
s   1 1.0 
        0.8466007680         0.6290267082
s   1 1.0 
        0.3364713377         0.3148626514
s   1 1.0 
        0.1364765367         0.1600308040
p   4 1.0 
       49.2003805100         2.1264813968
       11.3467905370         2.3279367185
        3.4273972411         2.0485729192
        1.1785525134         1.2607319854
p   1 1.0 
        0.4164220497         0.4768230427
p   1 1.0 
        0.1426082601         0.1249168256
d   1 1.0 
        1.6540000000         6.8771297418
d   1 1.0 
        0.4690000000         0.7577440909
f   1 1.0 
        1.0930000000         6.9645882147

  4 0
s   6 1.0 
    19730.8006470000         0.6956035199
     2957.8958745000         1.2986099328
      673.2213359500         2.2190880635
      190.6824949400         3.4636607549
       62.2954418980         4.6967555531
       22.6541611820         4.9522510945
s   2 1.0 
        8.9791477428         2.3880677979
        3.6863002370         0.7337878750
s   1 1.0 
        0.8466007680         0.6290267082
s   1 1.0 
        0.3364713377         0.3148626514
s   1 1.0 
        0.1364765367         0.1600308040
p   4 1.0 
       49.2003805100         2.1264813968
       11.3467905370         2.3279367185
        3.4273972411         2.0485729192
        1.1785525134         1.2607319854
p   1 1.0 
        0.4164220497         0.4768230427
p   1 1.0 
        0.1426082601         0.1249168256
d   1 1.0 
        1.6540000000         6.8771297418
d   1 1.0 
        0.4690000000         0.7577440909
f   1 1.0 
        1.0930000000         6.9645882147

[5D]
[9G]
[MO]
 Sym=     1a
 Ene= -1.57508683981039E+01
 Spin= Alpha
 Occup= 2.000000
  1       0.226353757648
  2       0.317570188203
  3       0.009884121055
  4      -0.002903410987
  5       0.000605486239
  6      -0.001150822316
  7      -0.001154975689
  8      -0.001145872593
  9       0.000432860635
 10       0.000481611100
 11       0.000397565931
 12      -0.000159949559
 13      -0.000163595685
 14      -0.000157037369
 15       0.000001326296
 16       0.000162636528
 17       0.000159424526
 18       0.000001161420
 19       0.000156900400
 20       0.000017465823
 21      -0.000128491375
 22      -0.000150462459
 23       0.000012810751
 24      -0.000166618137
 25      -0.000036237432
 26       0.000018423278
 27       0.000019431379
 28      -0.000002451386
 29      -0.000008517018
 30       0.000030258734
 31      -0.000027553743
 32       0.215702666507
 33       0.302629734729
 34       0.009309870935
 35      -0.002432147904
 36       0.000553864482
 37       0.001080658038
 38       0.001085681922
 39      -0.001097042193
 40      -0.000311652875
 41      -0.000263006874
 42       0.000285176867
 43       0.000159863351
 44       0.000156790680
 45      -0.000159876080
 46       0.000002881854
 47      -0.000152771913
 48      -0.000156564030
 49      -0.000002081671
 50       0.000151318370
 51      -0.000000641659
 52       0.000113189348
 53       0.000088671652
 54      -0.000012893127
 55      -0.000100784830
 56      -0.000030629842
 57      -0.000021077652
 58      -0.000018060154
 59       0.000004472927
 60      -0.000012105885
 61      -0.000022071913
 62       0.000024395207
 63       0.232915220731
 64       0.326773451103
 65       0.010248199374
 66      -0.003212452340
 67       0.000641742087
 68       0.001199170140
 69      -0.001180622010
 70       0.001194146596
 71      -0.000511540312
 72       0.000553657724
 73      -0.000547949099
 74       0.000160803998
 75      -0.000161239205
 76       0.000163396703
 77       0.000000447419
 78       0.000167067367
 79      -0.000160443607
 80       0.000004314005
 81      -0.000163564135
 82      -0.000004765011
 83      -0.000173310738
 84       0.000194161976
 85       0.000010196701
 86       0.000175692277
 87       0.000038535706
 88      -0.000023768094
 89       0.000025957612
 90       0.000002202552
 91      -0.000005697779
 92      -0.000029902305
 93      -0.000027880227
 94       0.223110418275
 95       0.313020253247
 96       0.009715599179
 97      -0.002768413737
 98       0.000592397141
 99      -0.001132723648
100       0.001138029557
101       0.001128033710
102       0.000401434027
103      -0.000349385608
104      -0.000434592540
105      -0.000160523047
106       0.000157393143
107       0.000163029480
108      -0.000003163908
109      -0.000154408595
110       0.000158422599
111      -0.000002213006
112      -0.000161317313
113      -0.000017725089
114       0.000159154496
115      -0.000132575781
116      -0.000013684517
117       0.000116125550
118       0.000034053217
119       0.000027004042
120      -0.000022546502
121      -0.000004095965
122      -0.000009158239
123       0.000021916551
124       0.000025178815
 Sym=     1a
 Ene= -1.57499543479675E+01
 Spin= Alpha
 Occup= 2.000000
  1       0.124748971249
  2       0.175007080646
  3       0.006452170864
  4      -0.005310982626
  5       0.000408523108
  6      -0.000626826746
  7      -0.000743806363
  8      -0.000647176213
  9       0.002833926270
 10       0.000058205358
 11       0.002201652888
 12      -0.000004181205
 13       0.000067912840
 14       0.000012583398
 15      -0.000029780769
 16      -0.000043079960
 17       0.000125812872
 18      -0.000093536165
 19       0.000087946141
 20      -0.000232934262
 21      -0.001383169952
 22       0.000073842821
 23      -0.000756287518
 24      -0.000251640270
 25      -0.000045823113
 26       0.000172214139
 27      -0.000008691230
 28       0.000242422511
 29       0.000043119443
 30      -0.000083312203
 31      -0.000077375488
 32       0.069493511425
 33       0.097490788893
 34       0.003570076669
 35      -0.002856182449
 36       0.000241701444
 37       0.000439100903
 38       0.000331839259
 39      -0.000350126093
 40       0.000805642509
 41      -0.001930346899
 42       0.001576883315
 43      -0.000050836170
 44       0.000020124288
 45      -0.000005663240
 46      -0.000037836281
 47      -0.000096762058
 48       0.000071979388
 49       0.000090474372
 50       0.000074099984
 51      -0.000316001430
 52      -0.000273769856
 53       0.001181314086
 54       0.000738109094
 55       0.000089121332
 56      -0.000024118605
 57       0.000006022891
 58      -0.000182020405
 59      -0.000243186443
 60       0.000019196518
 61      -0.000041148433
 62      -0.000113499645
 63      -0.376502614901
 64      -0.528178067638
 65      -0.019653290499
 66       0.016396557432
 67      -0.001325875607
 68      -0.002048820667
 69       0.002035474946
 70      -0.002066370745
 71       0.005560365251
 72      -0.005204660131
 73       0.004919225133
 74       0.000063936337
 75      -0.000068636335
 76       0.000077400472
 77      -0.000019933759
 78      -0.000178765562
 79       0.000192237480
 80       0.000006144189
 81       0.000154983781
 82      -0.000155388771
 83       0.001583446258
 84      -0.001406111697
 85       0.000090859886
 86      -0.001738030962
 87      -0.000143953449
 88       0.000061220085
 89      -0.000041625230
 90       0.000026708425
 91      -0.000107493672
 92       0.000128499653
 93       0.000144396546
 94       0.199298537219
 95       0.279588138167
 96       0.010325619560
 97      -0.008412934356
 98       0.000715521738
 99      -0.001044550359
100       0.001059052373
101       0.001135684266
102       0.003554748937
103      -0.003291261947
104      -0.001158370577
105       0.000006949561
106      -0.000011690615
107      -0.000059916810
108       0.000085303732
109      -0.000131441802
110       0.000148428774
111      -0.000009284181
112      -0.000001220655
113       0.000707039378
114       0.000477341187
115      -0.000336161045
116      -0.000069196679
117       0.001612077944
118       0.000077186627
119      -0.000105772730
120       0.000124761883
121      -0.000023750988
122       0.000055529179
123       0.000173068457
124       0.000187404808
 Sym=     1a
 Ene= -1.57499428573851E+01
 Spin= Alpha
 Occup= 2.000000
  1      -0.366341498637
  2      -0.513924225955
  3      -0.019068069713
  4       0.015752071705
  5      -0.001290417435
  6       0.002008895383
  7       0.001985124573
  8       0.001975040254
  9      -0.004535340643
 10      -0.005522149886
 11      -0.004992509750
 12      -0.000075906196
 13      -0.000050689067
 14      -0.000064776623
 15       0.000000355061
 16      -0.000200342030
 17      -0.000141258094
 18      -0.000031929807
 19      -0.000170550937
 20      -0.000026670449
 21       0.001264351323
 22       0.001772520784
 23      -0.000276890632
 24       0.001518614093
 25       0.000141371794
 26      -0.000049526955
 27      -0.000111668116
 28       0.000086099240
 29      -0.000104230644
 30      -0.000136965904
 31       0.000077347114
 32       0.127956807130
 33       0.179504701790
 34       0.006620357762
 35      -0.005312034849
 36       0.000477211908
 37       0.000679736852
 38       0.000643547585
 39      -0.000756799141
 40      -0.001944379636
 41      -0.002930560956
 42       0.000178078466
 43      -0.000007151645
 44       0.000020925596
 45       0.000047227046
 46       0.000088546855
 47      -0.000137276559
 48      -0.000078067747
 49       0.000032872381
 50      -0.000035083248
 51       0.000711265868
 52      -0.000145009375
 53       0.000368161858
 54       0.000272789988
 55      -0.001325693107
 56      -0.000050818819
 57       0.000167866959
 58       0.000102401890
 59      -0.000085734599
 60       0.000035550700
 61      -0.000193280998
 62       0.000134231533
 63       0.021570197512
 64       0.030261237702
 65       0.001107823754
 66      -0.000941831582
 67       0.000042554406
 68       0.000089592730
 69      -0.000184161330
 70       0.000071127682
 71      -0.000950726475
 72      -0.001459718104
 73      -0.001401756098
 74       0.000007308724
 75       0.000054104020
 76       0.000014576622
 77      -0.000062092051
 78      -0.000097094356
 79      -0.000049548498
 80      -0.000078745946
 81      -0.000078541846
 82      -0.000507565155
 83      -0.001015789377
 84      -0.000253822156
 85      -0.000646642925
 86      -0.000504358158
 87       0.000006056960
 88      -0.000198777989
 89       0.000039418106
 90      -0.000208664130
 91       0.000006665418
 92       0.000149558655
 93       0.000017356940
 94       0.225438532692
 95       0.316258364457
 96       0.011704661168
 97      -0.009599666403
 98       0.000792347074
 99      -0.001277620866
100       0.001189297165
101       0.001201460244
102       0.001654149250
103      -0.004025979170
104      -0.003474712340
105       0.000070344913
106      -0.000010703201
107      -0.000027541930
108      -0.000024210029
109      -0.000163496563
110       0.000019281844
111       0.000078115880
112      -0.000133823325
113      -0.000183420580
114       0.000418591786
115      -0.001669127077
116       0.000647457221
117       0.000686165334
118       0.000087476467
119       0.000017373483
120      -0.000174923810
121       0.000210901136
122       0.000064050460
123       0.000095535400
124      -0.000038161663
 Sym=     1a
 Ene= -1.57499182044644E+01
 Spin= Alpha
 Occup= 2.000000
  1      -0.029044749572
  2      -0.040743645832
  3      -0.001542259058
  4       0.001276447502
  5      -0.000130151524
  6       0.000114479362
  7       0.000147366157
  8       0.000223609713
  9      -0.001633432319
 10      -0.000812634115
 11       0.001247882364
 12       0.000026520324
 13       0.000008149993
 14      -0.000037473225
 15      -0.000092026601
 16      -0.000040588580
 17      -0.000092037795
 18       0.000026702865
 19       0.000088326818
 20      -0.000758842621
 21      -0.000108306804
 22      -0.000552804263
 23       0.000217804747
 24       0.001007024037
 25       0.000006223992
 26       0.000139923399
 27       0.000198991648
 28      -0.000074709837
 29      -0.000001198877
 30      -0.000125017770
 31       0.000168346734
 32       0.366223934466
 33       0.513761469367
 34       0.018974685528
 35      -0.015484142701
 36       0.001266553621
 37       0.001962682474
 38       0.002001678690
 39      -0.001978066727
 40      -0.005099722174
 41      -0.004287485733
 42       0.005385138528
 43      -0.000055015831
 44      -0.000077513311
 45       0.000052778136
 46      -0.000020694040
 47      -0.000132579999
 48      -0.000184657481
 49      -0.000027578327
 50       0.000194550748
 51      -0.000207552419
 52       0.001839208347
 53       0.001400300538
 54      -0.000213328081
 55      -0.001255595690
 56      -0.000136033620
 57      -0.000157751091
 58      -0.000100047591
 59       0.000073116986
 60       0.000106552824
 61      -0.000049539609
 62       0.000092918684
 63      -0.073329058051
 64      -0.102869229471
 65      -0.003855499530
 66       0.003279567535
 67      -0.000249627742
 68      -0.000465398942
 69       0.000387443385
 70      -0.000350122404
 71      -0.000543142300
 72      -0.001323774415
 73       0.002378818143
 74       0.000054956320
 75      -0.000009841090
 76      -0.000009137077
 77       0.000074798553
 78      -0.000051089002
 79      -0.000065558457
 80      -0.000062141015
 81       0.000115173376
 82       0.000616269501
 83       0.000173646229
 84      -0.001171103164
 85      -0.000503243230
 86       0.000390904732
 87      -0.000027090778
 88       0.000092388812
 89      -0.000222297748
 90      -0.000165851430
 91      -0.000022074905
 92      -0.000033954027
 93      -0.000137888252
 94      -0.248047102104
 95      -0.347973945174
 96      -0.012934677489
 97       0.010759139031
 98      -0.000850001306
 99       0.001326890034
100      -0.001404145400
101      -0.001313527129
102      -0.003988702277
103       0.002125541144
104       0.004193977220
105      -0.000036056843
106       0.000085143342
107       0.000033058218
108       0.000044235036
109       0.000032720724
110      -0.000148865182
111       0.000061810236
112       0.000162806066
113       0.000347561874
114      -0.001743315462
115       0.000746348658
116       0.000498923247
117      -0.000633067982
118      -0.000093332481
119      -0.000202415318
120       0.000071905442
121       0.000165326128
122      -0.000073140629
123       0.000040626911
124      -0.000062525673
 Sym=     1a
 Ene= -1.65309064469902E+00
 Spin= Alpha
 Occup= 2.000000
  1       0.045753169261
  2       0.105596204926
  3      -0.149058295609
  4      -0.178961936276
  5      -0.018322720696
  6       0.048879486160
  7       0.048810979812
  8       0.048923387339
  9       0.041741613201
 10       0.041825095471
 11       0.041649281477
 12       0.002667023186
 13       0.002675610410
 14       0.002656341792
 15       0.000001832296
 16      -0.004628930091
 17      -0.004567719714
 18      -0.000001911785
 19      -0.004508594982
 20       0.000115316939
 21      -0.010457736119
 22      -0.010430435240
 23       0.000064158464
 24      -0.010404813296
 25      -0.002119745651
 26       0.001285030438
 27       0.001237115423
 28       0.000015954069
 29       0.001025321481
 30       0.001609143407
 31      -0.001573348537
 32       0.045444559680
 33       0.104884855143
 34      -0.148173394559
 35      -0.177576869764
 36      -0.018422660841
 37      -0.048116035530
 38      -0.048440992867
 39       0.049100180420
 40      -0.041072663325
 41      -0.041286254103
 42       0.041778059964
 43      -0.002661653933
 44      -0.002713660064
 45       0.002703526658
 46      -0.000074635587
 47       0.004586780264
 48       0.004606209777
 49       0.000044168690
 50      -0.004459604948
 51      -0.000112992872
 52       0.010367921478
 53       0.010405765682
 54       0.000068426866
 55      -0.010181152400
 56      -0.002067521065
 57      -0.001289525116
 58      -0.001283460220
 59      -0.000005999349
 60       0.001034020648
 61      -0.001616199126
 62       0.001553737479
 63       0.046061413439
 64       0.106306300241
 65      -0.149928138236
 66      -0.180389083207
 67      -0.018207341009
 68      -0.049625568319
 69       0.048617595898
 70      -0.049288836301
 71      -0.042424600453
 72       0.041700106944
 73      -0.042202046150
 74      -0.002668439116
 75       0.002627060897
 76      -0.002616066552
 77       0.000002615723
 78      -0.004675278949
 79       0.004525840093
 80      -0.000088310898
 81       0.004544621325
 82       0.000004779197
 83      -0.010687644835
 84       0.010458001225
 85      -0.000137263205
 86       0.010495651783
 87       0.002107584260
 88      -0.001279253660
 89       0.001252663725
 90      -0.000063740210
 91       0.001012767384
 92      -0.001604568079
 93      -0.001625989078
 94       0.045748991273
 95       0.105586316369
 96      -0.149039182935
 97      -0.178964966017
 98      -0.018315430513
 99       0.048865261681
100      -0.049190046762
101      -0.048528564950
102       0.041741334661
103      -0.041956751838
104      -0.041520753207
105       0.002665652494
106      -0.002716925145
107      -0.002612556146
108       0.000078623674
109       0.004547880975
110      -0.004565509450
111       0.000044917545
112       0.004586116256
113       0.000122480190
114       0.010394333527
115      -0.010430799463
116       0.000070127023
117       0.010469848132
118       0.002114118317
119       0.001252730172
120      -0.001200395584
121       0.000033469741
122       0.001024118988
123       0.001635905747
124       0.001606796724
 Sym=     1a
 Ene= -1.04440346098682E+00
 Spin= Alpha
 Occup= 2.000000
  1      -0.056238817217
  2      -0.131905157411
  3       0.194250552918
  4       0.311925217011
  5       0.096449579048
  6      -0.012210583298
  7       0.076454569115
  8      -0.054482911509
  9      -0.029442889319
 10       0.045216737496
 11      -0.065317132584
 12      -0.003591621998
 13       0.009474630872
 14      -0.009914554690
 15       0.005067725004
 16       0.004954778849
 17      -0.001456304512
 18       0.004546775208
 19      -0.004584183516
 20       0.008564939769
 21       0.016030091273
 22       0.004408523936
 23       0.007635731725
 24      -0.001344453858
 25       0.000300143624
 26      -0.002777884829
 27      -0.001547099617
 28      -0.002068085015
 29       0.000325609180
 30       0.001455562498
 31       0.000313852375
 32       0.060191286527
 33       0.141168962644
 34      -0.207959770449
 35      -0.333827710719
 36      -0.103422172058
 37      -0.014499139014
 38       0.072664030543
 39       0.046017006232
 40      -0.032724457438
 41       0.040866144068
 42       0.059860325106
 43      -0.004115502102
 44       0.008769099318
 45       0.008896724376
 46      -0.004427338856
 47       0.004484953097
 48      -0.001817070658
 49      -0.004431030484
 50       0.004095233298
 51      -0.007650968703
 52       0.015825795436
 53       0.004279232216
 54      -0.007471726307
 55       0.000054221748
 56      -0.000339592731
 57      -0.002573456021
 58      -0.001361825530
 59       0.002033277094
 60      -0.000376089168
 61       0.001243457537
 62       0.000478483099
 63      -0.033172635100
 64      -0.077806370121
 65       0.114497301402
 66       0.184237895287
 67       0.056739995678
 68       0.066608302480
 69       0.097421183155
 70       0.023407978370
 71       0.067741919936
 72       0.070857534825
 73       0.031154271282
 74       0.010829475587
 75       0.013282736326
 76       0.004476510650
 77       0.002220802813
 78       0.006615546742
 79       0.005308625483
 80       0.008320957247
 81       0.002244111374
 82       0.003736426058
 83       0.016266088871
 84       0.005569114624
 85       0.014148153978
 86      -0.000085880981
 87      -0.000239171451
 88       0.002120250595
 89       0.000151806532
 90       0.003828509169
 91       0.000291591040
 92      -0.001829137269
 93       0.001413027414
 94       0.029697343423
 95       0.069649647064
 96      -0.102469766678
 97      -0.165216921949
 98      -0.050867052981
 99       0.062412444143
100       0.099211232847
101      -0.031148286334
102       0.063147352395
103       0.073470956992
104      -0.036666557409
105       0.010163703864
106       0.013670012443
107      -0.005556490290
108      -0.002932977847
109       0.006790886454
110       0.004855942101
111      -0.008253433750
112      -0.002575738861
113      -0.004956671727
114       0.016249662519
115       0.005163894587
116      -0.014001345202
117      -0.000938429045
118       0.000119195380
119       0.002313027508
120      -0.000107606234
121      -0.003767433180
122      -0.000179418555
123      -0.001944533227
124       0.001327568653
 Sym=     1a
 Ene= -1.04102958481746E+00
 Spin= Alpha
 Occup= 2.000000
  1      -0.015944329907
  2      -0.037398135762
  3       0.055042952528
  4       0.088818239290
  5       0.027731278906
  6       0.106068176660
  7      -0.051376327340
  8      -0.050868877600
  9       0.084172001940
 10      -0.048904240607
 11      -0.048795723321
 12       0.015196424464
 13      -0.008140229946
 14      -0.008172379239
 15       0.004520919045
 16      -0.003883130534
 17       0.007407359338
 18      -0.007995959540
 19      -0.003926098658
 20       0.007754464087
 21      -0.005062176612
 22       0.015642711012
 23      -0.013601432112
 24      -0.005235912137
 25      -0.000169389105
 26      -0.000639782406
 27      -0.002732825427
 28       0.003653363892
 29       0.000101667037
 30      -0.000722320816
 31      -0.002412754075
 32       0.042860473480
 33       0.100530265374
 34      -0.148115153047
 35      -0.238199623879
 36      -0.074741764416
 37       0.083047725073
 38      -0.073470319678
 39      -0.000777260063
 40       0.055522017083
 41      -0.076947135353
 42       0.014316830285
 43       0.010830458236
 44      -0.012463110281
 45       0.001481659751
 46      -0.000217351261
 47      -0.005908691371
 48       0.005393667185
 49       0.007896734951
 50       0.000578487707
 51      -0.000444422533
 52      -0.005448314814
 53       0.015331667839
 54       0.013455810578
 55      -0.004320697286
 56      -0.000495017938
 57       0.000695218169
 58      -0.001473408257
 59      -0.003643522156
 60      -0.000259172613
 61      -0.001872687874
 62      -0.001239665675
 63       0.042646561689
 64       0.100030409056
 65      -0.147088295283
 66      -0.238026296339
 67      -0.073964615063
 68       0.083345873849
 69      -0.001310094260
 70      -0.074538698947
 71       0.055363459792
 72       0.013834790788
 73      -0.078231397245
 74       0.010885036144
 75       0.001211627561
 76      -0.012527858197
 77      -0.006839576840
 78       0.000480303700
 79       0.005371857607
 80       0.004177745467
 81      -0.005954711895
 82      -0.011702697078
 83      -0.004595200199
 84       0.015314018134
 85       0.007059421612
 86      -0.005496131394
 87      -0.000070187962
 88      -0.002099245673
 89       0.003170692519
 90       0.001886920699
 91      -0.000293759859
 92       0.000203855669
 93       0.001865638618
 94      -0.069563323205
 95      -0.163163797700
 96       0.240161248978
 97       0.387417503009
 98       0.120979824641
 99       0.060310488816
100       0.022475784696
101       0.021180474855
102       0.026696762102
103       0.043464224474
104       0.042161989204
105       0.006515830985
106       0.005775638561
107       0.005597219067
108       0.002304247523
109       0.002572110868
110       0.003355651007
111      -0.004211512011
112       0.002538049175
113       0.003839095073
114      -0.004071577871
115       0.015002566965
116      -0.007230718342
117      -0.004206016077
118      -0.000665467698
119      -0.000739874505
120       0.001812108719
121      -0.001943224898
122       0.000448487359
123      -0.000966650725
124       0.000707270716
 Sym=     1a
 Ene= -1.03770497377734E+00
 Spin= Alpha
 Occup= 2.000000
  1       0.056078242748
  2       0.131539735066
  3      -0.193513732545
  4      -0.313600701410
  5      -0.098898669768
  6       0.008592748474
  7       0.052562728340
  8      -0.078263818329
  9       0.027467316886
 10       0.064573553385
 11      -0.046415480153
 12       0.003448896671
 13       0.009937314324
 14      -0.009564301052
 15       0.006305159367
 16       0.004706654582
 17       0.001627673489
 18       0.002245694145
 19      -0.004594735952
 20       0.010888327420
 21       0.001466210881
 22      -0.004187015136
 23       0.003835746959
 24      -0.015787176862
 25      -0.001195201322
 26      -0.002030536341
 27      -0.001491685679
 28      -0.000968565053
 29      -0.000395660970
 30       0.002252614460
 31      -0.001348889473
 32       0.033554032935
 33       0.078704153314
 34      -0.115874310327
 35      -0.187364379237
 36      -0.059307100462
 37      -0.065377452945
 38      -0.022270076232
 39      -0.096245893755
 40      -0.067287530598
 41      -0.030842346229
 42      -0.069680059204
 43      -0.011119159617
 44      -0.004651634377
 45      -0.013139947125
 46       0.008187544991
 47      -0.001992972739
 48      -0.005137215834
 49      -0.002131640464
 50      -0.006377576637
 51       0.014013458698
 52       0.000604040182
 53      -0.005152376120
 54      -0.003607349488
 55      -0.016085795201
 56      -0.001147883039
 57       0.002232567941
 58       0.002844297571
 59       0.001014796712
 60      -0.000140295478
 61      -0.001613434142
 62       0.002407626019
 63      -0.060152723038
 64      -0.141103360189
 65       0.207512780213
 66       0.336421471948
 67       0.105878053250
 68       0.013135432580
 69      -0.045451117925
 70      -0.075224965364
 71       0.032787146250
 72      -0.059647603619
 73      -0.042173138698
 74       0.004221012123
 75      -0.008913815402
 76      -0.008973737834
 77      -0.006069188393
 78      -0.004188690712
 79       0.001873117155
 80      -0.001610129179
 81      -0.004458453271
 82      -0.010369741696
 83       0.000115450796
 84      -0.004219007873
 85      -0.002610662148
 86      -0.015893620838
 87      -0.001216487119
 88      -0.001851905228
 89       0.001418073523
 90      -0.000697088640
 91       0.000401242174
 92       0.002110559815
 93       0.001497346197
 94      -0.028999001005
 95      -0.068025001504
 96       0.100174718419
 97       0.161658162490
 98       0.051203006780
 99      -0.062724392886
100       0.030179453987
101      -0.101264463330
102      -0.063285704877
103       0.035762634693
104      -0.075652042309
105      -0.010489333603
106       0.005614695414
107      -0.014053187867
108      -0.008546009433
109       0.002668094495
110      -0.004978265422
111       0.001642671850
112      -0.006810563202
113      -0.014650959447
114       0.001244986060
115      -0.005459498209
116       0.002798336263
117      -0.016202100040
118      -0.001018556078
119       0.002509964313
120      -0.002944372279
121       0.000753089049
122       0.000199439942
123      -0.001746806337
124      -0.002379696839
 Sym=     1a
 Ene= -6.85900786975373E-01
 Spin= Alpha
 Occup= 2.000000
  1       0.022506187111
  2       0.053710368872
  3      -0.093435921000
  4      -0.130000634941
  5      -0.105888616776
  6      -0.114130218563
  7      -0.115697457893
  8      -0.112565849209
  9      -0.100742329401
 10      -0.102341534561
 11      -0.099150476173