 --invoking executable--
/usr/local/cfour/bin/xjoda


   *************************************************************************
         <<<     CCCCCC     CCCCCC   |||     CCCCCC     CCCCCC   >>>
       <<<      CCC        CCC       |||    CCC        CCC         >>>
      <<<      CCC        CCC        |||   CCC        CCC            >>>
    <<<        CCC        CCC        |||   CCC        CCC              >>>
      <<<      CCC        CCC        |||   CCC        CCC            >>>
       <<<      CCC        CCC       |||    CCC        CCC         >>>
         <<<     CCCCCC     CCCCCC   |||     CCCCCC     CCCCCC   >>>
   *************************************************************************

     ****************************************************************
     * CFOUR Coupled-Cluster techniques for Computational Chemistry *
     ****************************************************************


   Department of Chemistry                Institut fuer Physikalische Chemie
   University of Florida                  Universitaet Mainz
   Gainesville, FL 32611, USA             D-55099 Mainz, Germany

   Department of Chemistry                Fakultaet fuer Chemie und Biowiss.
   Johns Hopkins University               Karlsruher Institut fuer Technologie
   Baltimore, MD 21218, USA               D-76131 Karlsruhe, Germany

   Department of Chemistry                Department of Physical Chemistry
   Southern Methodist University          Eotvos Lorand University
   Dallas, TX 75275, USA                  H-1053 Budapest, Hungary


                       Version 2.1

                     vladimir-Kubuntu-16                               
                     Сб авг 31 13:16:25 +07 2019                  
                     integer*8 version is running

********************************************************************************
*                          Input from ZMAT file                                *
********************************************************************************
test HF/cc-pVQZ energy                                                          
N       0.5200      0.5300      0.5100                                          
N      -0.5200     -0.5200      0.5200                                          
N      -0.5200      0.5200     -0.5200                                          
N       0.5200     -0.5200     -0.5200                                          
                                                                                
*CFOUR(CALC=HF                                                                  
SCF_CONV=9                                                                      
BASIS=cc-pVQZ                                                                   
COORD=CARTESIAN)                                                                
                                                                                
********************************************************************************
    -------------------------------------------------------------------
                    CFOUR Control Parameters 
    -------------------------------------------------------------------
        External           Internal           Value            Units
          Name               Name
    -------------------------------------------------------------------
       ABCDTYPE             IABCDT         STANDARD    [  0]    ***   
       ANHARMONIC           IANHAR         OFF         [  0]    ***   
       ANH_ALGORIT          IANALG         STANDARD    [  0]    ***   
       ANH_DERIVAT          IANDER         SECOND      [  1]    ***   
       ANH_MODE             ANHMOD         VIBRATION   [  0]    ***   
       ANH_STEPSIZ          ICUBST             50000          x 10-6  
       ANH_SYMMETR          IANHSM         ABELIAN     [  0]    ***   
       AO_LADDERS           IAOLAD         SINGLEPASS  [  1]    ***   
       AV_SCF               IAVSCF         OFF         [  0]    ***   
       BASIS                IBASIS         PVQZ        [ 15]    ***   
       BOTHVECTORS          BOTHVC         OFF         [  0]    ***   
       BOX_POTENT           IPIAB          OFF         [  0]    ***   
       BREIT                IBREIT         OFF         [  0]    ***   
       BRUCK_CONV           IBRTOL          10D-  4             ***   
       BRUECKNER            IBRKNR         OFF         [  0]    ***   
       BUFFERSIZE           IBUFFS              4096            ***   
       CACHE_RECS           ICHREC             10               ***   
       CALCLEVEL            ICLLVL         SCF         [  0]    ***   
       CCORBOPT             ICCORB         OFF         [  0]  x 0.01  
       CC_CONV              ICCCNV          10D-  7             ***   
       CC_EXPORDER          ICCEOR              0               ***   
       CC_EXTRAPOL          ICCEXT         DIIS        [  1]    ***   
       CC_GUESS             ICCGES         MP2         [  0]    ***   
       CC_MAXCYC            ICCCYC              0              cycles 
       CC_PROGRAM           ICCPRO         VCC         [  0]    ***   
       CHARGE               ICHRGE              0               ***   
       CHOLESKY             ICHOLE         OFF         [  0]    ***   
       CIS_CONV             ICISTL              5               ***   
       COMM_SIZE            IPSIZE            ***               ***   
       CONSTANT             ICONST         OLD         [  1]    ***   
       CONTINUUM            ICONTU         NONE        [  0]    ***   
       CONTRACTION          ICNTYP         GENERAL     [  1]    ***   
       COORDINATES          ICOORD         CARTESIAN   [  1]    ***   
       CPHF_CONVER          ICPHFT          10D- 16             ***   
       CPHF_MAXCYC          ICPHFC             64              cycles 
       CUBIC                ICUBIC         OFF         [  0]    ***   
       CURVILINEAR          ICURVY         OFF         [  0]    ***   
       DBOC                 IDBOC          OFF         [  0]    ***   
       DCT                  IDCT           OFF         [  0]    ***   
       DERIV_LEV            IDRLVL         ZERO        [  0]    ***   
       DEVMEM_SIZE          IDVMEM          50000000           MByte  
       DIAG_MRCC            IEOMST          10D-  0             ***   
       DIFF_TYPE            IDIFTY         RELAXED     [  0]    ***   
       DIRECT               IDIRCT         OFF         [  0]    ***   
       DROPMO               IDRPMO      NONE         
       ECP                  IECP           OFF         [  0]    ***   
       EIGENVECTOR          IVEC                1               ***   
       EL_ANHARM            IELANH         OFF         [  0]    ***   
       EOMFOLLOW            IEOMSR         ENERGY      [  0]    ***   
       EOMIP                IEOMIP         OFF         [  0]    ***   
       EOMLEVEL             HBARFM         SAME        [  0]    ***   
       EOM_MRCC             IMRCCE         NEW         [  1]    ***   
       EOM_NONIT            EOMNON         OFF         [  0]    ***   
       EOM_NSING            IEOMSI          10D-  0             ***   
       EOM_NSTATES          IMRCCD         DAVIDSON    [  0]    ***   
       EOM_NTRIP            IEOMTR          10D-  0             ***   
       EOM_ORDER            IEXORD         ENERGY      [  0]    ***   
       EOM_PROPSTA          IEOMST              0               ***   
       ESTATE_CONV          IEXTOL          10D-  5             ***   
       ESTATE_DIAG          IEXDIG         ITERATIVE   [  0]    ***   
       ESTATE_LOCK          IESLOC         ON          [  1]    ***   
       ESTATE_MAXC          IEXMXC             40               ***   
       ESTATE_PROP          IEXPRP         OFF         [  0]    ***   
       EVAL_HESS            IRECAL              0            # of cyc.
       EXCITATION           IEXCIT              0               ***   
       EXCITE               IEXCIT         NONE        [  0]    ***   
       EXTERN_POT           IEXPOT         OFF         [  0]    ***   
       FCGRADNEW            IFCGNW         OFF         [  0]    ***   
       FC_FIELD             IFINFC              0             x 10-6  
       FD_CALTYPE           IFDCAL         GRADONLY    [  0]    ***   
       FD_PROJECT           IFDPRJ         OFF         [  1]    ***   
       FD_STEPSIZE          IDISFD              0            10-4 bohr
       FD_USEGROUP          IFDGRP         FULL        [  0]    ***   
       FILE_RECSIZ          IFLREC              4096           words  
       FINITE_PERT          IFIPER              0             x 10-6  
       FIXGEOM              IFIXGM         OFF         [  0]    ***   
       FOCK                 IFOCK          AO          [  1]    ***   
       FREQ_ALGORI          IVIALG         STANDARD    [  0]    ***   
       FROZEN_CORE          IFROCO         OFF         [  0]    ***   
       GAMMA_ABCD           IGABCD         STORE       [  0]    ***   
       GAMMA_ABCI           IGABCI         STORE       [  0]    ***   
       GENBAS_1             IGNBS1              0               ***   
       GENBAS_2             IGNBS2              0               ***   
       GENBAS_3             IGNBS3              0               ***   
       GENBAS_4             IGNBS4              0               ***   
       GEO_CONV             ICONTL              5              H/bohr 
       GEO_MAXCYC           IOPTCY             50               ***   
       GEO_MAXSTEP          IMXSTP            300            millibohr
       GEO_METHOD           INR            SINGLE_POINT[  5]    ***   
       GIAO                 IGIAO          OFF         [  1]    ***   
       GIMIC                IGIMIC         OFF         [  0]    ***   
       GRID                 IGRID          OFF         [  0]    ***   
       GRID_ALGO            IGALGO         SERIAL      [  0]    ***   
       GUESS                IGUESS         MOREAD      [  0]    ***   
       HBAR                 IHBAR          OFF         [  0]    ***   
       HESS_TYPE            IHESTP         SCF         [  0]    ***   
       HF2_FILE             IHF2Fl         USE         [  1]    ***   
       HFSTABILITY          ISTABL         OFF         [  0]    ***   
       INCORE               INCORE         OFF         [  0]    ***   
       INPUT_MRCC           IMRCC          ON          [  1]    ***   
       INTEGRALS            INTTYP         VMOL        [  1]    ***   
       JODA_PRINT           IJPRNT              0               ***   
       KEYWORD_OUT          IDMPKW         NO          [  0]    ***   
       LINDEP_TOL           ILINDP              8               ***   
       LINEQ_CONV           IZTACN          10D-  7           cycles  
       LINEQ_EXPOR          ILMAXD              5               ***   
       LINEQ_MAXCY          ILMAXC            100               ***   
       LINEQ_TYPE           ILTYPE         DIIS        [  1]    ***   
       LOCK_ORBOCC          ILOCOC         OFF         [  0]    ***   
       MEMORY_SIZE          IMEMSZ         100000000           words  
       MEM_UNIT             IMEMU          INTEGERWORDS[  0]    ***   
       MRCC                 IMRCCC         OFF         [  0]    ***   
       MULTIPLICTY          IMULTP              1               ***   
       NACOUPLING           IVCOUP         OFF         [  0]    ***   
       NEGEVAL              IDIE           ABORT       [  0]    ***   
       NEWNORM              INEWNO         OFF         [  0]    ***   
       NON-HF               INONHF         OFF         [  0]    ***   
       NTOP_TAMP            ITOPT2             15               ***   
       NUC_MODEL            INUCMO         POINT       [  0]    ***   
       OCCUPATION           IOCCU   ESTIMATED BY SCF 
       OPEN-SHELL           IOPEN          SPIN-ORBITAL[  0]    ***   
       OPTVIB               IOPTVB         OFF         [  0]    ***   
       ORBITALS             IORBTP         STANDARD    [  0]    ***   
       PARALLEL             IPARAL         ON          [  1]    ***   
       PARA_INT             IPINTS         ON          [  1]    ***   
       PARA_PRINT           IPPRIN              0               ***   
       PERT_ORB             IPTORB         STANDARD    [  0]    ***   
       POINTS               IGRDFD              0               ***   
       PRINT                IPRNT               0               ***   
       PROPS                IPROPS         OFF         [  0]    ***   
       PROP_INTEGR          IINTYP         INTERNAL    [  0]    ***   
       PSI                  IPSI           OFF         [  0]    ***   
       QC_ALG               IQCALG         FLM         [  0]    ***   
       QC_LINALG            IQCLIN         TRIDIAG     [  2]    ***   
       QC_MAXCYC            IQCMAX          10D-100           cycles  
       QC_MAXSCFCY          IQCMSC          10D- 15           cycles  
       QC_RTRUST            IQCRTR          10D-  0           x 10-3  
       QC_SKIPSCF           IQCSKI         OFF         [  0]    ***   
       QC_START             IQCSTA          10D-  1             ***   
       QRHFGUESS            IQGUES         OFF         [  0]    ***   
       QUARTIC              IQUART         OFF         [  0]    ***   
       RAMAN_INT            IRAMIN         OFF         [  0]    ***   
       RAMAN_ORB            IRAMRE         UNRELAXED   [  0]    ***   
       RDO                  IRDOFM         OFF         [  0]    ***   
       REDUCE_REPR          REDREP         Ir          [  0]    ***   
       REFERENCE            IREFNC         RHF         [  0]    ***   
       RELATIVIST           IRELAT         OFF         [  0]    ***   
       RELAX_DENS           IRDENS         OFF         [  0]    ***   
       RESET_FLAGS          IRESET         OFF         [  0]    ***   
       RESTART_CC           ICCRES         OFF         [  0]    ***   
       ROT_EVEC             ROTVEC              0               ***   
       SAVE_INTS            ISVINT         OFF         [  0]    ***   
       SCALE_ON             ISTCRT              0               ***   
       SCF_CONV             ISCFCV          10D-  9             ***   
       SCF_DAMPING          IDAMP               0             x 10-3  
       SCF_EXPORDE          IRPPOR              6               ***   
       SCF_EXPSTAR          IRPPLS              8               ***   
       SCF_EXTRAPO          IRPP           ON          [  1]    ***   
       SCF_MAXCYC           ISCFCY            150              cycles 
       SCF_NOSTOP           ISCFST         OFF         [  0]    ***   
       SCF_PRINT            ISCFPR              0               ***   
       SCF_PROG             ISCFPR         SCF         [  0]    ***   
       SD_FIELD             IFINSD              0             x 10-6  
       SOPERT               IPERSO         OFF         [  0]    ***   
       SPHERICAL            IDFGHI         ON          [  1]    ***   
       SPINORBIT            ISOCAL         OFF         [  0]    ***   
       SPINROTATIO          ISRCON         OFF         [  0]    ***   
       SPIN_FLIP            ISPFLP         OFF         [  0]    ***   
       SPIN_ORBIT           ISPORB         OFF         [  0]    ***   
       SPIN_SCAL            ISCSMP         OFF         [  0]    ***   
       STEEPSCALE           ISTPSC              1000          x 10-3  
       SUBGROUP             ISUBGP         DEFAULT     [  0]    ***   
       SUBGRPAXIS           ISBXYZ         X           [  0]    ***   
       SYMMETRY             ISYM           ON          [  0]    ***   
       SYM_CHECK            ISYMCK         OVERRIDE    [  1]    ***   
       T3_EXTRAPOL          IT3EXT         OFF         [  0]    ***   
       T4_EXTRAPOL          IT4EXP         OFF         [  0]    ***   
       TAMP_SUM             IEVERY              0               ***   
       TESTSUITE            ITESTS         OFF         [  0]    ***   
       THERMOCH             ITHERM         OFF         [  0]    ***   
       TOL_CHOLESK          ITOLCH          10D-  4             ***   
       TRANGRAD             IRESRM         OFF         [  0]    ***   
       TRANS_INV            ITRAIN         USE         [  0]    ***   
       TREAT_PERT           ITREAT         SIMULTANEOUS[  0]    ***   
       TRIP_ALGORI          ITRALG         NORMAL      [  0]    ***   
       UIJ_THRESHO          IUIJTH              1               ***   
       UNITS                IUNITS         ANGSTROM    [  0]    ***   
       UNOS                 IUNOS          OFF         [  0]    ***   
       UPDATE_HESS          IHUPDT         ON          [  1]    ***   
       VIBPHASE             ISETPH         STANDARD    [  0]    ***   
       VIBRATION            IVIB           NO          [  0]    ***   
       VIB_ALGORIT          IGEALG         STANDARD    [  0]    ***   
       VNATORB              IVNORB         OFF         [  0]    ***   
       VTRAN                IVTRAN         FULL/PARTIAL[  0]    ***   
       XFIELD               IXEFLD              0             x 10-6  
       XFORM_TOL            IXFTOL          10D- 11             ***   
       YFIELD               IYEFLD              0             x 10-6  
       ZFIELD               IZEFLD              0             x 10-6  
       ZSCALE_EXP           IZEXPS         OFF         [  0]    ***   
    -------------------------------------------------------------------
  @GETXYZ-I,     4 atoms read from ZMAT.
   Rotational constants (in cm-1): 
          0.5532377061             0.5564759291             0.5597913262
   Rotational constants (in MHz): 
      16585.6515012674         16682.7309988681         16782.1241148580
********************************************************************************
   The full molecular point group is C1  .
   The largest Abelian subgroup of the full molecular point group is C1  .
   The computational point group is C1  .
********************************************************************************


 ----------------------------------------------------------------
         Coordinates used in calculation (QCOMP) 
 ----------------------------------------------------------------
 Z-matrix   Atomic            Coordinates (in bohr)
  Symbol    Number           X              Y              Z
 ----------------------------------------------------------------
     N         7         1.21417130    -0.00000000     1.19291190
     N         7        -1.39027030     0.80233673     0.58212323
     N         7         0.58082277     0.80233673    -1.37739783
     N         7        -0.40472377    -1.60467345    -0.39763730
 ----------------------------------------------------------------

   Interatomic distance matrix (Angstroms) 

                 N             N             N             N    
                [ 1]        [ 2]        [ 3]        [ 4]
  N    [ 1]     0.00000
  N    [ 2]     1.47790     0.00000
  N    [ 3]     1.46376     1.47078     0.00000
  N    [ 4]     1.47085     1.47078     1.47078     0.00000
 rotcon2
   Rotational constants (in cm-1): 
          0.5597913262             0.5564759291             0.5532377061
   Rotational constants (in MHz): 
      16782.1241148580         16682.7309988681         16585.6515012674
  ECPDATA file not present.   Using default ECPDATA. 
  There are  220 basis functions.
 @GEOPT-W, Archive file not created for single-point calculation.
 @CHECKOUT-I, Total execution time (CPU/WALL):        0.73/       0.22 seconds.
--executable xjoda finished with status     0 in        0.24 seconds (walltime).
 --invoking executable--
/usr/local/cfour/bin/xvmol
 SERIAL VERSION OF MOLECULE STARTED
********************************************************************************
                    INPUT FROM MOL FILE
********************************************************************************
INTGRL        1    0    1    0    0    0    0    0    0                         
         *** CFOUR Program System (Release V0.1) ***                            
test HF/cc-pVQZ energy                                                          
    4    0            0.10E-08              0    0                              
   9999.00      3.00                                                            
          7.00000000    1    5    1    1    1    1    1                         
N #1   1.214171296190518  -0.000000000000001   1.192911903543910                
   12    5                                                                      
   45840.000000000000        9.2000000000000000E-005  -2.0000000000000002E-005  
   6868.0000000000000        7.1699999999999997E-004  -1.5899999999999999E-004  
   1563.0000000000000        3.7490000000000002E-003  -8.2399999999999997E-004  
   442.39999999999998        1.5532000000000001E-002  -3.4780000000000002E-003  
   144.30000000000001        5.3145999999999999E-002  -1.1965999999999999E-002  
   52.180000000000000       0.14678700000000000       -3.5388000000000003E-002  
   20.340000000000000       0.30466300000000002       -8.0076999999999995E-002  
   8.3810000000000002       0.39768399999999998      -0.14672199999999999       
   3.5289999999999999       0.21764100000000000      -0.11636000000000001       
   1.0540000000000000        0.0000000000000000        9.0000000000000002E-006  
  0.41180000000000000       -0.0000000000000000        0.0000000000000000       
  0.15520000000000000        0.0000000000000000        0.0000000000000000       
    6    4                                                                      
   49.329999999999998        5.5329999999999997E-003   0.0000000000000000       
   11.369999999999999        3.7962000000000003E-002   0.0000000000000000       
   3.4350000000000001       0.14902799999999999        0.0000000000000000       
   1.1819999999999999        0.0000000000000000        1.0000000000000000       
  0.41730000000000000        0.0000000000000000        0.0000000000000000       
  0.14280000000000001        0.0000000000000000        0.0000000000000000       
    3    3                                                                      
   2.8370000000000002        1.0000000000000000        0.0000000000000000       
  0.96799999999999997        0.0000000000000000        1.0000000000000000       
  0.33500000000000002        0.0000000000000000        0.0000000000000000       
    2    2                                                                      
   2.0270000000000001        1.0000000000000000        0.0000000000000000       
  0.68500000000000005        0.0000000000000000        1.0000000000000000       
    1    1                                                                      
   1.4270000000000000        1.0000000000000000                                 
          7.00000000    1    5    1    1    1    1    1                         
N #2  -1.390270301014336   0.802336726367101   0.582123227501371                
   12    5                                                                      
   45840.000000000000        9.2000000000000000E-005  -2.0000000000000002E-005  
   6868.0000000000000        7.1699999999999997E-004  -1.5899999999999999E-004  
   1563.0000000000000        3.7490000000000002E-003  -8.2399999999999997E-004  
   442.39999999999998        1.5532000000000001E-002  -3.4780000000000002E-003  
   144.30000000000001        5.3145999999999999E-002  -1.1965999999999999E-002  
   52.180000000000000       0.14678700000000000       -3.5388000000000003E-002  
   20.340000000000000       0.30466300000000002       -8.0076999999999995E-002  
   8.3810000000000002       0.39768399999999998      -0.14672199999999999       
   3.5289999999999999       0.21764100000000000      -0.11636000000000001       
   1.0540000000000000        0.0000000000000000        9.0000000000000002E-006  
  0.41180000000000000       -0.0000000000000000        0.0000000000000000       
  0.15520000000000000        0.0000000000000000        0.0000000000000000       
    6    4                                                                      
   49.329999999999998        5.5329999999999997E-003   0.0000000000000000       
   11.369999999999999        3.7962000000000003E-002   0.0000000000000000       
   3.4350000000000001       0.14902799999999999        0.0000000000000000       
   1.1819999999999999        0.0000000000000000        1.0000000000000000       
  0.41730000000000000        0.0000000000000000        0.0000000000000000       
  0.14280000000000001        0.0000000000000000        0.0000000000000000       
    3    3                                                                      
   2.8370000000000002        1.0000000000000000        0.0000000000000000       
  0.96799999999999997        0.0000000000000000        1.0000000000000000       
  0.33500000000000002        0.0000000000000000        0.0000000000000000       
    2    2                                                                      
   2.0270000000000001        1.0000000000000000        0.0000000000000000       
  0.68500000000000005        0.0000000000000000        1.0000000000000000       
    1    1                                                                      
   1.4270000000000000        1.0000000000000000                                 
          7.00000000    1    5    1    1    1    1    1                         
N #3   0.580822770220687   0.802336726367032  -1.377397829864006                
   12    5                                                                      
   45840.000000000000        9.2000000000000000E-005  -2.0000000000000002E-005  
   6868.0000000000000        7.1699999999999997E-004  -1.5899999999999999E-004  
   1563.0000000000000        3.7490000000000002E-003  -8.2399999999999997E-004  
   442.39999999999998        1.5532000000000001E-002  -3.4780000000000002E-003  
   144.30000000000001        5.3145999999999999E-002  -1.1965999999999999E-002  
   52.180000000000000       0.14678700000000000       -3.5388000000000003E-002  
   20.340000000000000       0.30466300000000002       -8.0076999999999995E-002  
   8.3810000000000002       0.39768399999999998      -0.14672199999999999       
   3.5289999999999999       0.21764100000000000      -0.11636000000000001       
   1.0540000000000000        0.0000000000000000        9.0000000000000002E-006  
  0.41180000000000000       -0.0000000000000000        0.0000000000000000       
  0.15520000000000000        0.0000000000000000        0.0000000000000000       
    6    4                                                                      
   49.329999999999998        5.5329999999999997E-003   0.0000000000000000       
   11.369999999999999        3.7962000000000003E-002   0.0000000000000000       
   3.4350000000000001       0.14902799999999999        0.0000000000000000       
   1.1819999999999999        0.0000000000000000        1.0000000000000000       
  0.41730000000000000        0.0000000000000000        0.0000000000000000       
  0.14280000000000001        0.0000000000000000        0.0000000000000000       
    3    3                                                                      
   2.8370000000000002        1.0000000000000000        0.0000000000000000       
  0.96799999999999997        0.0000000000000000        1.0000000000000000       
  0.33500000000000002        0.0000000000000000        0.0000000000000000       
    2    2                                                                      
   2.0270000000000001        1.0000000000000000        0.0000000000000000       
  0.68500000000000005        0.0000000000000000        1.0000000000000000       
    1    1                                                                      
   1.4270000000000000        1.0000000000000000                                 
          7.00000000    1    5    1    1    1    1    1                         

OMP_NUM_THREADS not specified; defaulting to 1
Running with 1 threads/proc

N #4  -0.404723765396868  -1.604673452734132  -0.397637301181275                
   12    5                                                                      
   45840.000000000000        9.2000000000000000E-005  -2.0000000000000002E-005  
   6868.0000000000000        7.1699999999999997E-004  -1.5899999999999999E-004  
   1563.0000000000000        3.7490000000000002E-003  -8.2399999999999997E-004  
   442.39999999999998        1.5532000000000001E-002  -3.4780000000000002E-003  
   144.30000000000001        5.3145999999999999E-002  -1.1965999999999999E-002  
   52.180000000000000       0.14678700000000000       -3.5388000000000003E-002  
   20.340000000000000       0.30466300000000002       -8.0076999999999995E-002  
   8.3810000000000002       0.39768399999999998      -0.14672199999999999       
   3.5289999999999999       0.21764100000000000      -0.11636000000000001       
   1.0540000000000000        0.0000000000000000        9.0000000000000002E-006  
  0.41180000000000000       -0.0000000000000000        0.0000000000000000       
  0.15520000000000000        0.0000000000000000        0.0000000000000000       
    6    4                                                                      
   49.329999999999998        5.5329999999999997E-003   0.0000000000000000       
   11.369999999999999        3.7962000000000003E-002   0.0000000000000000       
   3.4350000000000001       0.14902799999999999        0.0000000000000000       
   1.1819999999999999        0.0000000000000000        1.0000000000000000       
  0.41730000000000000        0.0000000000000000        0.0000000000000000       
  0.14280000000000001        0.0000000000000000        0.0000000000000000       
    3    3                                                                      
   2.8370000000000002        1.0000000000000000        0.0000000000000000       
  0.96799999999999997        0.0000000000000000        1.0000000000000000       
  0.33500000000000002        0.0000000000000000        0.0000000000000000       
    2    2                                                                      
   2.0270000000000001        1.0000000000000000        0.0000000000000000       
  0.68500000000000005        0.0000000000000000        1.0000000000000000       
    1    1                                                                      
   1.4270000000000000        1.0000000000000000                                 
FINISH                                                                          

********************************************************************************
 ONE- AND TWO-ELECTRON INTEGRALS OVER SYMMETRY-ADAPTED AOS ARE CALCULATED.

  SPHERICAL HARMONICS ARE USED.
  
  INTEGRALS LESS THAN  0.10E-13 ARE NEGLECTED.

   BASIS FUNCTION NOT NORMALIZED: 
   CENTER (AS ORDERED IN MOL FILE):   1
   ANGULAR MOMENTUM TYPE          : S
   OFFSET WITHIN ANGULAR MOMENTUM :  1
   <CHI|CHI>                      :    1.0077242778
   BASIS FUNCTION NOT NORMALIZED: 
   CENTER (AS ORDERED IN MOL FILE):   1
   ANGULAR MOMENTUM TYPE          : S
   OFFSET WITHIN ANGULAR MOMENTUM :  2
   <CHI|CHI>                      :    2.8669746502
   BASIS FUNCTION NOT NORMALIZED: 
   CENTER (AS ORDERED IN MOL FILE):   1
   ANGULAR MOMENTUM TYPE          : P
   OFFSET WITHIN ANGULAR MOMENTUM :  1
   <CHI|CHI>                      :    5.6255372074
   BASIS FUNCTION NOT NORMALIZED: 
   CENTER (AS ORDERED IN MOL FILE):   2
   ANGULAR MOMENTUM TYPE          : S
   OFFSET WITHIN ANGULAR MOMENTUM :  1
   <CHI|CHI>                      :    1.0077242778
   BASIS FUNCTION NOT NORMALIZED: 
   CENTER (AS ORDERED IN MOL FILE):   2
   ANGULAR MOMENTUM TYPE          : S
   OFFSET WITHIN ANGULAR MOMENTUM :  2
   <CHI|CHI>                      :    2.8669746502
   BASIS FUNCTION NOT NORMALIZED: 
   CENTER (AS ORDERED IN MOL FILE):   2
   ANGULAR MOMENTUM TYPE          : P
   OFFSET WITHIN ANGULAR MOMENTUM :  1
   <CHI|CHI>                      :    5.6255372074
   BASIS FUNCTION NOT NORMALIZED: 
   CENTER (AS ORDERED IN MOL FILE):   3
   ANGULAR MOMENTUM TYPE          : S
   OFFSET WITHIN ANGULAR MOMENTUM :  1
   <CHI|CHI>                      :    1.0077242778
   BASIS FUNCTION NOT NORMALIZED: 
   CENTER (AS ORDERED IN MOL FILE):   3
   ANGULAR MOMENTUM TYPE          : S
   OFFSET WITHIN ANGULAR MOMENTUM :  2
   <CHI|CHI>                      :    2.8669746502
   BASIS FUNCTION NOT NORMALIZED: 
   CENTER (AS ORDERED IN MOL FILE):   3
   ANGULAR MOMENTUM TYPE          : P
   OFFSET WITHIN ANGULAR MOMENTUM :  1
   <CHI|CHI>                      :    5.6255372074
   BASIS FUNCTION NOT NORMALIZED: 
   CENTER (AS ORDERED IN MOL FILE):   4
   ANGULAR MOMENTUM TYPE          : S
   OFFSET WITHIN ANGULAR MOMENTUM :  1
   <CHI|CHI>                      :    1.0077242778
   BASIS FUNCTION NOT NORMALIZED: 
   CENTER (AS ORDERED IN MOL FILE):   4
   ANGULAR MOMENTUM TYPE          : S
   OFFSET WITHIN ANGULAR MOMENTUM :  2
   <CHI|CHI>                      :    2.8669746502
   BASIS FUNCTION NOT NORMALIZED: 
   CENTER (AS ORDERED IN MOL FILE):   4
   ANGULAR MOMENTUM TYPE          : P
   OFFSET WITHIN ANGULAR MOMENTUM :  1
   <CHI|CHI>                      :    5.6255372074
  NUCLEAR REPULSION ENERGY :  105.7779183141 A.U.
  @MOLECU-I, ONE ELECTRON INTEGRALS (CPU/WALL):        0.62/       0.11 SECONDS.
  @TWOEL-I,  284730978 INTEGRALS OF SYMMETRY TYPE  I I I I
  @TWOEL-I, TOTAL NUMBER OF 2-E INTEGRALS  284730978.
  @MOLECU-I, TWO ELECTRON INTEGRALS (CPU/WALL):       96.28/     101.07 SECONDS.
 @CHECKOUT-I, Total execution time (CPU/WALL):       96.94/     101.18 seconds.
--executable xvmol finished with status     0 in      101.18 seconds (walltime).
 --invoking executable--
/usr/local/cfour/bin/xvmol2ja
 @GETMEM-I,  Allocated     762 MB of main memory.
 @CHECKOUT-I, Total execution time (CPU/WALL):        0.26/       0.04 seconds.
--executable xvmol2ja finished with status     0 in        0.04 seconds (walltime).
 --invoking executable--
/usr/local/cfour/bin/xvscf
  There are  220 functions in the AO basis.

  There are 1 irreducible representations.

       Irrep        # of functions
         1                220


  Parameters for SCF calculation: 
        SCF reference function:  RHF  
  Maximum number of iterations:  150
     Full symmetry point group: C1  
     Computational point group: C1  
        Initial density matrix: MOREAD                 
     SCF convergence tolerance: 10**(- 9)
  DIIS convergence acceleration:  ON
          Latest start for DIIS:   8
                     DIIS order:   6

  Memory information:    2974667 words required.
  Fock matrices are constructed from AO integral file.
 @GETMEM-I,  Allocated      22 MB of main memory.
  Initialization and symmetry analysis required      0.009 seconds.

  @INITGES-I, Occupancies from core Hamiltonian:

          Alpha population by irrep:  14
           Beta population by irrep:  14


 total no. of electrons in initial guess :   0.0000000000000000     
  --------------------------------------------------------------------
  Iteration         Total Energy            Largest Density Difference
  --------------------------------------------------------------------
       0           105.777918314137366              0.0000000000D+00
       1          -188.225587576570263              0.3145921708D+01
       2          -187.074460891832928              0.1671766359D+03
       3          -201.714860371873158              0.1669222519D+03
       4          -191.740041255348387              0.7494935049D+02
       5          -199.228590744576877              0.7497070805D+02
       6          -182.680885857684302              0.6430782788D+01
       7          -196.607951985546606              0.6432291737D+01
       8          -180.572279437761779              0.4612133217D+01
       9          -215.859710078766341              0.4019872211D+01
      10          -217.258264043369820              0.4554700960D+00
      11          -217.538906164349726              0.1480776519D+00
      12          -217.595205560398824              0.5687208442D-01
      13          -217.605621734349370              0.5438563131D-01
      14          -217.606274088665771              0.1038688849D-01
      15          -217.606445398945255              0.3105197412D-02
      16          -217.606487763091422              0.1261571264D-02
      17          -217.606493136534766              0.3065298679D-03
      18          -217.606495981729836              0.2915735734D-03
      19          -217.606496558788251              0.1459305137D-03
      20          -217.606496620455005              0.4619781960D-04
      21          -217.606496633587597              0.2554948127D-04
      22          -217.606496634611290              0.6316130976D-05
      23          -217.606496634763573              0.2642102970D-05
      24          -217.606496634789380              0.9466034701D-06
      25          -217.606496634801374              0.6515774124D-06
      26          -217.606496634804557              0.2308735973D-06
      27          -217.606496634798077              0.1250428371D-06
      28          -217.606496634804785              0.7669984750D-07
      29          -217.606496634802511              0.6144611764D-07
      30          -217.606496634800465              0.2736493562D-07
      31          -217.606496634807115              0.9386164096D-08
      32          -217.606496634801601              0.3957771610D-08
      33          -217.606496634800919              0.2438176597D-08

  SCF has converged.

 Density matrix saved to file den.dat
 total electron number:   28.000000000000160     
     E(SCF)=      -217.606496634802795              0.9992050520D-09

  Eigenvector printing suppressed.

 @PUTMOS-I, Writing converged MOs to NEWMOS. 
 @PUTMOS-I, Symmetry   1 Full Blocks 55 Partial Blocksize   0
 @PUTFOCK-I, Writing converged Fock matrix to NEWFOCK. 
 @PUTFOCK-I, Symmetry   1 Full Blocks 55 Partial Blocksize   0



  ORBITAL EIGENVALUES (ALPHA)  (1H = 27.2113834 eV)

       MO #        E(hartree)               E(eV)           FULLSYM    COMPSYM
       ----   --------------------   --------------------   -------   ---------
    1     1         -15.7486586191        -428.5427877207       A         A (1)
    2     2         -15.7477364494        -428.5176942067       A         A (1)
    3     3         -15.7477222280        -428.5173072238       A         A (1)
    4     4         -15.7476958933        -428.5165906181       A         A (1)
    5     5          -1.6517934435         -44.9475846882       A         A (1)
    6     6          -1.0440408937         -28.4097970431       A         A (1)
    7     7          -1.0406740752         -28.3181812549       A         A (1)
    8     8          -1.0373564955         -28.2279053207       A         A (1)
    9     9          -0.6858814421         -18.6637828871       A         A (1)
   10    10          -0.5701814758         -15.5154267462       A         A (1)
   11    11          -0.5690422949         -15.4844280566       A         A (1)
   12    12          -0.5678410865         -15.4517415148       A         A (1)
   13    13          -0.5338562622         -14.5269674310       A         A (1)
   14    14          -0.5285938477         -14.3837698538       A         A (1)
  +++++++++++++++++++++++++++++++++++++++++++++++++++++++++++++++++++++++++++++
   15    15           0.1878385278           5.1113461966       A         A (1)
   16    16           0.1905024159           5.1838342790       A         A (1)
   17    17           0.1913943866           5.2081060337       A         A (1)
   18    18           0.1928384611           5.2474012993       A         A (1)
   19    19           0.1937506723           5.2722238266       A         A (1)
   20    20           0.1960165904           5.3338825938       A         A (1)
   21    21           0.3514990722           9.5647760171       A         A (1)
   22    22           0.4137247174          11.2580219069       A         A (1)
   23    23           0.4151715805          11.2973930542       A         A (1)
   24    24           0.4166149902          11.3366702277       A         A (1)
   25    25           0.4557676917          12.4020693998       A         A (1)
   26    26           0.4568915933          12.4326523170       A         A (1)
   27    27           0.5132562115          13.9664115539       A         A (1)
   28    28           0.5148161556          14.0088597915       A         A (1)
   29    29           0.5164397505          14.0530400531       A         A (1)
   30    30           0.5575805308          15.1725375989       A         A (1)
   31    31           0.5578387390          15.1795638010       A         A (1)
   32    32           0.5580275781          15.1847023757       A         A (1)
   33    33           0.5897341821          16.0474829340       A         A (1)
   34    34           0.7742161042          21.0674912452       A         A (1)
   35    35           0.7745246896          21.0758882821       A         A (1)
   36    36           0.7748061066          21.0835460285       A         A (1)
   37    37           0.9373143863          25.5056211311       A         A (1)
   38    38           0.9390624066          25.5531871830       A         A (1)
   39    39           0.9408769543          25.6025635357       A         A (1)
   40    40           1.1864804309          32.2857739016       A         A (1)
   41    41           1.1886717495          32.3454027122       A         A (1)
   42    42           1.2131594458          33.0117468057       A         A (1)
   43    43           1.2694468105          34.5434038674       A         A (1)
   44    44           1.2716235545          34.6026360830       A         A (1)
   45    45           1.2737837401          34.6614177201       A         A (1)
   46    46           1.3075580123          35.5804623893       A         A (1)
   47    47           1.3080588884          35.5940919231       A         A (1)
   48    48           1.3085345366          35.6070349680       A         A (1)
   49    49           1.3962737819          37.9945412107       A         A (1)
   50    50           1.3976103894          38.0309121487       A         A (1)
   51    51           1.4098692990          38.3644940399       A         A (1)
   52    52           1.4101719005          38.3727282454       A         A (1)
   53    53           1.4104542198          38.3804105436       A         A (1)
   54    54           1.4107196012          38.3876319377       A         A (1)
   55    55           1.4110083589          38.3954894353       A         A (1)
   56    56           1.4112583217          38.4022912690       A         A (1)
   57    57           2.1307479289          57.9805988213       A         A (1)
   58    58           2.1534101305          58.5972686771       A         A (1)
   59    59           2.1537347131          58.6061010211       A         A (1)
   60    60           2.1540085231          58.6135517678       A         A (1)
   61    61           2.2367799715          60.8658773863       A         A (1)
   62    62           2.2379103601          60.8966368239       A         A (1)
   63    63           2.2728982582          61.8487059335       A         A (1)
   64    64           2.3523734013          64.0113345241       A         A (1)
   65    65           2.3530348830          64.0293343552       A         A (1)
   66    66           2.3536808841          64.0469129377       A         A (1)
   67    67           2.5903517231          70.4870538791       A         A (1)
   68    68           2.5924895379          70.5452267752       A         A (1)
   69    69           2.5946090915          70.6029027623       A         A (1)
   70    70           2.7051711352          73.6114489230       A         A (1)
   71    71           2.7052908879          73.6147075586       A         A (1)
   72    72           2.7104614194          73.7554048753       A         A (1)
   73    73           2.7123503189          73.8068044430       A         A (1)
   74    74           2.7141226856          73.8550329914       A         A (1)
   75    75           2.8514816067          77.5927592589       A         A (1)
   76    76           2.8560909562          77.7181860338       A         A (1)
   77    77           2.8577759537          77.7640371485       A         A (1)
   78    78           2.8611412360          77.8556111333       A         A (1)
   79    79           2.9918829679          81.4132745276       A         A (1)
   80    80           2.9927235486          81.4361478912       A         A (1)
   81    81           2.9937599490          81.4643497804       A         A (1)
   82    82           3.0290315087          82.4241377135       A         A (1)
   83    83           3.0355353109          82.6011151689       A         A (1)
   84    84           3.0416631360          82.7678617668       A         A (1)
   85    85           3.0896756967          84.0743499655       A         A (1)
   86    86           3.1288981836          85.1416480922       A         A (1)
   87    87           3.1307082071          85.1909013361       A         A (1)
   88    88           3.1325249337          85.2403369815       A         A (1)
   89    89           3.1455333095          85.5943128824       A         A (1)
   90    90           3.1459609238          85.6059488599       A         A (1)
   91    91           3.1462924936          85.6149713321       A         A (1)
   92    92           3.2091161980          87.3244912389       A         A (1)
   93    93           3.2102226422          87.3545991164       A         A (1)
   94    94           3.2408447204          88.1878682279       A         A (1)
   95    95           3.2432065662          88.2521373181       A         A (1)
   96    96           3.2452428942          88.3075486213       A         A (1)
   97    97           3.4911414953          94.9987897332       A         A (1)
   98    98           3.4927786149          95.0433380218       A         A (1)
   99    99           3.4944300030          95.0882745761       A         A (1)
  100   100           3.5082412554          95.4640978601       A         A (1)
  101   101           3.8811077348         105.6103105890       A         A (1)
  102   102           3.8826402535         105.6520125420       A         A (1)
  103   103           3.8842032561         105.6945440048       A         A (1)
  104   104           4.0385704576         109.8950891091       A         A (1)
  105   105           4.0398073223         109.9287459102       A         A (1)
  106   106           4.0683773986         110.7061772105       A         A (1)
  107   107           4.1750484794         113.6088448878       A         A (1)
  108   108           4.1811636063         113.7752459505       A         A (1)
  109   109           4.1827742287         113.8190732128       A         A (1)
  110   110           4.1851312677         113.8832115041       A         A (1)
  111   111           4.1915617152         114.0581928764       A         A (1)
  112   112           4.2273940708         115.0332408425       A         A (1)
  113   113           4.2329934259         115.1856070408       A         A (1)
  114   114           4.2393648719         115.3589829019       A         A (1)
  115   115           5.0900865475         138.5082965837       A         A (1)
  116   116           5.0982785112         138.7312112485       A         A (1)
  117   117           5.1057660982         138.9349588479       A         A (1)
  118   118           5.6117660561         152.7039177046       A         A (1)
  119   119           5.6204354406         152.9398236503       A         A (1)
  120   120           5.6290845971         153.1751791627       A         A (1)
  121   121           6.0671883627         165.0965886974       A         A (1)
  122   122           6.4537487895         175.6154326792       A         A (1)
  123   123           6.4574036108         175.7148854217       A         A (1)
  124   124           6.4610104876         175.8130335303       A         A (1)
  125   125           6.5467251429         178.1454478776       A         A (1)
  126   126           6.7359367924         183.2941586159       A         A (1)
  127   127           6.7399485990         183.4033254233       A         A (1)
  128   128           6.7440268942         183.5143014773       A         A (1)
  129   129           6.9421999776         188.9068652305       A         A (1)
  130   130           6.9442702712         188.9632007824       A         A (1)
  131   131           6.9456140464         188.9997667663       A         A (1)
  132   132           7.0083256144         190.7062352859       A         A (1)
  133   133           7.0158178819         190.9101102494       A         A (1)
  134   134           7.1664403358         195.0087555902       A         A (1)
  135   135           7.1669341150         195.0221920045       A         A (1)
  136   136           7.1673584180         195.0337378766       A         A (1)
  137   137           7.3497422709         199.9966548237       A         A (1)
  138   138           7.3767328296         200.7311052659       A         A (1)
  139   139           7.7226717072         210.1445806981       A         A (1)
  140   140           7.7285530491         210.3046201457       A         A (1)
  141   141           7.7352738851         210.4875033927       A         A (1)
  142   142           8.0300971037         218.5100510285       A         A (1)
  143   143           8.0434951111         218.8746293434       A         A (1)
  144   144           8.0574200731         219.2535468239       A         A (1)
  145   145           8.2259599905         223.8397511351       A         A (1)
  146   146           8.2260664089         223.8426469275       A         A (1)
  147   147           8.2893737801         225.5653280757       A         A (1)
  148   148           8.2942556660         225.6981709460       A         A (1)
  149   149           8.2981719642         225.8047388377       A         A (1)
  150   150           8.4899092147         231.0221746713       A         A (1)
  151   151           8.4983919714         231.2530022179       A         A (1)
  152   152           8.5053120175         231.4413062439       A         A (1)
  153   153           8.5263392480         232.0134862769       A         A (1)
  154   154           8.5289871722         232.0855399558       A         A (1)
  155   155           8.5857527079         233.6302087120       A         A (1)
  156   156           8.5933684329         233.8374431242       A         A (1)
  157   157           8.5979608298         233.9624085972       A         A (1)
  158   158           8.6238075248         234.6657329243       A         A (1)
  159   159           8.6271579900         234.7569037196       A         A (1)
  160   160           8.6297779992         234.8281977939       A         A (1)
  161   161           8.7120553010         237.0670769975       A         A (1)
  162   162           8.8307630720         240.2972796666       A         A (1)
  163   163           8.9174180123         242.6552804720       A         A (1)
  164   164           8.9216798019         242.7712496605       A         A (1)
  165   165           8.9258769719         242.8854604634       A         A (1)
  166   166           8.9766144067         244.2660962554       A         A (1)
  167   167           8.9821316729         244.4162286999       A         A (1)
  168   168           8.9877558418         244.5692701170       A         A (1)
  169   169           9.0597455120         246.5282086327       A         A (1)
  170   170           9.0613927123         246.5730312314       A         A (1)
  171   171           9.0633422853         246.6260818106       A         A (1)
  172   172           9.1921171715         250.1302246116       A         A (1)
  173   173           9.1939389461         250.1797976183       A         A (1)
  174   174           9.1959726246         250.2351368249       A         A (1)
  175   175           9.2749501555         252.3842246960       A         A (1)
  176   176           9.2752670263         252.3928471911       A         A (1)
  177   177           9.2799401342         252.5200089218       A         A (1)
  178   178           9.2838274534         252.6257882541       A         A (1)
  179   179           9.2878342347         252.7348183155       A         A (1)
  180   180           9.3347965847         254.0127288278       A         A (1)
  181   181           9.3363381721         254.0546775523       A         A (1)
  182   182           9.3389190313         254.1249063027       A         A (1)
  183   183           9.3423669393         254.2187286481       A         A (1)
  184   184           9.3438921237         254.2602310250       A         A (1)
  185   185           9.3463890724         254.3281764558       A         A (1)
  186   186           9.3474374625         254.3567045990       A         A (1)
  187   187           9.3506781120         254.4448871550       A         A (1)
  188   188           9.3510909992         254.4561223879       A         A (1)
  189   189           9.5743921751         260.5324562982       A         A (1)
  190   190           9.6742941749         263.2509279183       A         A (1)
  191   191           9.6866687896         263.5876583027       A         A (1)
  192   192           9.6992681072         263.9305031644       A         A (1)
  193   193           9.8146252288         267.0695300277       A         A (1)
  194   194           9.8526475692         268.1041705115       A         A (1)
  195   195           9.8595058682         268.2907943143       A         A (1)
  196   196           9.8666401221         268.4849272327       A         A (1)
  197   197          10.4624022695         284.6964394396       A         A (1)
  198   198          10.4733106465         284.9932714694       A         A (1)
  199   199          10.4832729122         285.2643585015       A         A (1)
  200   200          10.7419048964         292.3020925834       A         A (1)
  201   201          10.7779352584         293.2825285778       A         A (1)
  202   202          10.7869567434         293.5280156630       A         A (1)
  203   203          10.8114920456         294.1956551793       A         A (1)
  204   204          10.8197497726         294.4203593535       A         A (1)
  205   205          10.8336581997         294.7988268963       A         A (1)
  206   206          11.3484524630         308.8070909673       A         A (1)
  207   207          11.3560140197         309.0128513862       A         A (1)
  208   208          11.3608223752         309.1436933910       A         A (1)
  209   209          11.3872888944         309.8638839930       A         A (1)
  210   210          11.4040037171         310.3187174410       A         A (1)
  211   211          11.8916800152         323.5890641643       A         A (1)
  212   212          11.9004333016         323.8272531962       A         A (1)
  213   213          11.9088867723         324.0572838284       A         A (1)
  214   214          12.7115456912         345.8987434109       A         A (1)
  215   215          12.7280083490         346.3467151033       A         A (1)
  216   216          12.7444592765         346.7943675993       A         A (1)
  217   217          30.7972446732         838.0356324668       A         A (1)
  218   218          32.8033781083         892.6252985210       A         A (1)
  219   219          32.8088225272         892.7734486909       A         A (1)
  220   220          32.8161573207         892.9730385676       A         A (1)


  VSCF finished.

 @CHECKOUT-I, Total execution time (CPU/WALL):      139.87/     106.86 seconds.
--executable xvscf finished with status     0 in      106.86 seconds (walltime).
  The final electronic energy is      -217.606496634802795 a.u. 
  This computation required                          208.35 seconds (walltime).
