[Molden Format]
[Atoms] AU
   N     1    7      0.9826575141     0.9968304590     0.9684845691
   N     2    7     -0.9826575141    -0.9873818290     0.9873818290
   N     3    7     -0.9826575141     0.9779331991    -0.9779331991
   N     4    7      0.9826575141    -0.9873818290    -0.9779331991
[GTO]
    1  0
  s      6  0
     19730.8006470000         0.0002188798
      2957.8958745000         0.0016960709
       673.2213359500         0.0087954604
       190.6824949400         0.0353593826
        62.2954418980         0.1109578922
        22.6541611820         0.2498297255
  s      2  0
         8.9791477428         0.4062389615
         3.6863002370         0.2433821718
  s      1  0
         0.8466007681         1.0000000000
  s      1  0
         0.3364713377         1.0000000000
  s      1  0
         0.1364765368         1.0000000000
  p      4  0
        49.2003805100         0.0055552417
        11.3467905370         0.0380523797
         3.4273972411         0.1495367103
         1.1785525134         0.3494930523
  p      1  0
         0.4164220497         1.0000000000
  p      1  0
         0.1426082601         1.0000000000
  d      1  0
         1.6540000000         1.0000000000
  d      1  0
         0.4690000000         1.0000000000
  f      1  0
         1.0930000000         1.0000000000

    2  0
  s      6  0
     19730.8006470000         0.0002188798
      2957.8958745000         0.0016960709
       673.2213359500         0.0087954604
       190.6824949400         0.0353593826
        62.2954418980         0.1109578922
        22.6541611820         0.2498297255
  s      2  0
         8.9791477428         0.4062389615
         3.6863002370         0.2433821718
  s      1  0
         0.8466007681         1.0000000000
  s      1  0
         0.3364713377         1.0000000000
  s      1  0
         0.1364765368         1.0000000000
  p      4  0
        49.2003805100         0.0055552417
        11.3467905370         0.0380523797
         3.4273972411         0.1495367103
         1.1785525134         0.3494930523
  p      1  0
         0.4164220497         1.0000000000
  p      1  0
         0.1426082601         1.0000000000
  d      1  0
         1.6540000000         1.0000000000
  d      1  0
         0.4690000000         1.0000000000
  f      1  0
         1.0930000000         1.0000000000

    3  0
  s      6  0
     19730.8006470000         0.0002188798
      2957.8958745000         0.0016960709
       673.2213359500         0.0087954604
       190.6824949400         0.0353593826
        62.2954418980         0.1109578922
        22.6541611820         0.2498297255
  s      2  0
         8.9791477428         0.4062389615
         3.6863002370         0.2433821718
  s      1  0
         0.8466007681         1.0000000000
  s      1  0
         0.3364713377         1.0000000000
  s      1  0
         0.1364765368         1.0000000000
  p      4  0
        49.2003805100         0.0055552417
        11.3467905370         0.0380523797
         3.4273972411         0.1495367103
         1.1785525134         0.3494930523
  p      1  0
         0.4164220497         1.0000000000
  p      1  0
         0.1426082601         1.0000000000
  d      1  0
         1.6540000000         1.0000000000
  d      1  0
         0.4690000000         1.0000000000
  f      1  0
         1.0930000000         1.0000000000

    4  0
  s      6  0
     19730.8006470000         0.0002188798
      2957.8958745000         0.0016960709
       673.2213359500         0.0087954604
       190.6824949400         0.0353593826
        62.2954418980         0.1109578922
        22.6541611820         0.2498297255
  s      2  0
         8.9791477428         0.4062389615
         3.6863002370         0.2433821718
  s      1  0
         0.8466007681         1.0000000000
  s      1  0
         0.3364713377         1.0000000000
  s      1  0
         0.1364765368         1.0000000000
  p      4  0
        49.2003805100         0.0055552417
        11.3467905370         0.0380523797
         3.4273972411         0.1495367103
         1.1785525134         0.3494930523
  p      1  0
         0.4164220497         1.0000000000
  p      1  0
         0.1426082601         1.0000000000
  d      1  0
         1.6540000000         1.0000000000
  d      1  0
         0.4690000000         1.0000000000
  f      1  0
         1.0930000000         1.0000000000

[5D]
[9G]
[MO]
Sym=        a    
Ene=  -0.15750867940942E+02
Spin=       Alpha
Occup=       2.0000000000
     1    0.226257175946
     2    0.317434697451
     3    0.009879102334
     4   -0.002899268030
     5    0.000605148724
     6   -0.001150300406
     7   -0.001154443578
     8   -0.001145355908
     9    0.000431501336
    10    0.000480408860
    11    0.000396168157
    12   -0.000159965407
    13   -0.000163615642
    14   -0.000157052091
    15    0.000001331110
    16    0.000162599106
    17    0.000159377482
    18    0.000001166919
    19    0.000156850431
    20    0.000017498330
    21   -0.000128026583
    22   -0.000150082004
    23    0.000012851841
    24   -0.000166262094
    25   -0.000036200519
    26    0.000018387779
    27    0.000019406532
    28   -0.000002465112
    29   -0.000008545553
    30   -0.000030241444
    31    0.000027527799
    32    0.215717851002
    33    0.302651035816
    34    0.009310660609
    35   -0.002432779837
    36    0.000553923113
    37    0.001080729283
    38    0.001085759431
    39   -0.001097142144
    40   -0.000312142348
    41   -0.000263344376
    42    0.000284954224
    43    0.000159869012
    44    0.000156793122
    45   -0.000159864875
    46    0.000002906436
    47   -0.000152787464
    48   -0.000156589301
    49   -0.000002086577
    50    0.000151298971
    51   -0.000000442031
    52    0.000113179435
    53    0.000088578465
    54   -0.000012932642
    55   -0.000101074701
    56   -0.000030636461
    57   -0.000021040599
    58   -0.000018012189
    59    0.000004486851
    60   -0.000012101622
    61    0.000022108007
    62   -0.000024439127
    63    0.232971959052
    64    0.326853046682
    65    0.010251157998
    66   -0.003214925197
    67    0.000641936231
    68    0.001199473208
    69   -0.001180943839
    70    0.001194447124
    71   -0.000512501894
    72    0.000554062748
    73   -0.000548946537
    74    0.000160796678
    75   -0.000161218183
    76    0.000163390009
    77    0.000000435930
    78    0.000167071029
    79   -0.000160480023
    80    0.000004296473
    81   -0.000163603319
    82   -0.000004859578
    83   -0.000173749336
    84    0.000194308899
    85    0.000010047994
    86    0.000175816583
    87    0.000038556935
    88   -0.000023820493
    89    0.000025973833
    90    0.000002154929
    91   -0.000005681445
    92    0.000029887101
    93    0.000027894988
    94    0.223134461636
    95    0.313053982323
    96    0.009716851489
    97   -0.002769449144
    98    0.000592482495
    99   -0.001132870997
   100    0.001138156057
   101    0.001128151900
   102    0.000401343696
   103   -0.000349831292
   104   -0.000435227604
   105   -0.000160509086
   106    0.000157392234
   107    0.000163032322
   108   -0.000003181168
   109   -0.000154426569
   110    0.000158407680
   111   -0.000002195267
   112   -0.000161347741
   113   -0.000017864627
   114    0.000159195553
   115   -0.000132899700
   116   -0.000013538367
   117    0.000116060238
   118    0.000034062536
   119    0.000027024059
   120   -0.000022602224
   121   -0.000004048266
   122   -0.000009151172
   123   -0.000021913427
   124   -0.000025145486
Sym=        a    
Ene=  -0.15749954040677E+02
Spin=       Alpha
Occup=       2.0000000000
     1   -0.121502684612
     2   -0.170453013975
     3   -0.006282932286
     4    0.005170468109
     5   -0.000397046805
     6    0.000609041103
     7    0.000726209189
     8    0.000629627632
     9   -0.002792644368
    10   -0.000008737337
    11   -0.002157967234
    12    0.000004861773
    13   -0.000067442898
    14   -0.000011965149
    15    0.000029828663
    16    0.000044859750
    17   -0.000124521925
    18    0.000093800929
    19   -0.000086498587
    20    0.000233591283
    21    0.001371959737
    22   -0.000089255346
    23    0.000758592629
    24    0.000237586176
    25    0.000044566487
    26   -0.000171849313
    27    0.000009567339
    28   -0.000243135200
    29   -0.000042189801
    30   -0.000084592972
    31   -0.000076593114
    32   -0.070865101070
    33   -0.099414934288
    34   -0.003640808707
    35    0.002912406550
    36   -0.000246727725
    37   -0.000446385385
    38   -0.000338829330
    39    0.000358109932
    40   -0.000785391100
    41    0.001958785950
    42   -0.001581505405
    43    0.000050907428
    44   -0.000020286661
    45    0.000005234880
    46    0.000037059355
    47    0.000098074098
    48   -0.000071156809
    49   -0.000090746940
    50   -0.000073916385
    51    0.000309787104
    52    0.000273986396
    53   -0.001185347691
    54   -0.000740381175
    55   -0.000076610308
    56    0.000024650687
    57   -0.000007421700
    58    0.000181162721
    59    0.000243896558
    60   -0.000019570652
    61   -0.000042895402
    62   -0.000112246287
    63    0.376306368889
    64    0.527902746167
    65    0.019643482705
    66   -0.016388978450
    67    0.001325501249
    68    0.002048046475
    69   -0.002033820072
    70    0.002065695326
    71   -0.005551321952
    72    0.005218106708
    73   -0.004907856524
    74   -0.000064051715
    75    0.000068180020
    76   -0.000077544081
    77    0.000020442105
    78    0.000179627865
    79   -0.000191730680
    80   -0.000005409625
    81   -0.000154323075
    82    0.000159542884
    83   -0.001574433563
    84    0.001408952313
    85   -0.000084825319
    86    0.001742198730
    87    0.000143904203
    88   -0.000059500750
    89    0.000041396301
    90   -0.000024759133
    91    0.000107443612
    92    0.000129800308
    93    0.000144462901
    94   -0.201182821948
    95   -0.282231527120
    96   -0.010423169333
    97    0.008492159500
    98   -0.000722131782
    99    0.001055259936
   100   -0.001068933003
   101   -0.001145720362
   102   -0.003567094269
   103    0.003325745592
   104    0.001186874661
   105   -0.000007532020
   106    0.000011715307
   107    0.000060118409
   108   -0.000085109992
   109    0.000132891643
   110   -0.000148530894
   111    0.000008554793
   112    0.000002338845
   113   -0.000705577097
   114   -0.000480072074
   115    0.000350572890
   116    0.000063158953
   117   -0.001617767482
   118   -0.000077912390
   119    0.000105725642
   120   -0.000123240495
   121    0.000021782556
   122   -0.000056053324
   123    0.000173936567
   124    0.000187026235
Sym=        a    
Ene=  -0.15749942169671E+02
Spin=       Alpha
Occup=       2.0000000000
     1    0.367441796947
     2    0.515467814773
     3    0.019124519694
     4   -0.015797383399
     5    0.001293934477
     6   -0.002014467298
     7   -0.001991689660
     8   -0.001980631614
     9    0.004558027019
    10    0.005521355485
    11    0.005013798337
    12    0.000075870633
    13    0.000051267415
    14    0.000064796572
    15   -0.000000755237
    16    0.000199926966
    17    0.000142269589
    18    0.000031136900
    19    0.000171490056
    20    0.000023485326
    21   -0.001276778123
    22   -0.001772641640
    23    0.000270483863
    24   -0.001519341925
    25   -0.000141772119
    26    0.000051265306
    27    0.000111883895
    28   -0.000084052542
    29    0.000104606001
    30   -0.000136042642
    31    0.000077789402
    32   -0.126747065656
    33   -0.177807586529
    34   -0.006558360527
    35    0.005263087764
    36   -0.000473053582
    37   -0.000672678286
    38   -0.000637384839
    39    0.000750501547
    40    0.001943875383
    41    0.002906915933
    42   -0.000156060469
    43    0.000006654289
    44   -0.000020824848
    45   -0.000047233568
    46   -0.000088909293
    47    0.000136182507
    48    0.000078397719
    49   -0.000032108310
    50    0.000036060194
    51   -0.000714351363
    52    0.000145306958
    53   -0.000355567777
    54   -0.000266538205
    55    0.001324559495
    56    0.000050395262
    57   -0.000168043890
    58   -0.000104166480
    59    0.000083679212
    60   -0.000035224315
    61   -0.000192829852
    62    0.000135092358
    63   -0.024971651749
    64   -0.035032973141
    65   -0.001285837923
    66    0.001091608193
    67   -0.000054563505
    68   -0.000108216208
    69    0.000202551557
    70   -0.000089739117
    71    0.000999179408
    72    0.001411586558
    73    0.001448793762
    74   -0.000006624695
    75   -0.000054760639
    76   -0.000013866751
    77    0.000062022790
    78    0.000095463512
    79    0.000051122643
    80    0.000078706729
    81    0.000080049593
    82    0.000507071723
    83    0.001030035405
    84    0.000239635087
    85    0.000646684794
    86    0.000489510467
    87   -0.000007367196
    88    0.000199444978
    89   -0.000040108368
    90    0.000208649050
    91   -0.000007654025
    92    0.000148467564
    93    0.000016282641
    94   -0.223975380433
    95   -0.314205756604
    96   -0.011629383042
    97    0.009539785884
    98   -0.000787079703
    99    0.001269996391
   100   -0.001181659811
   101   -0.001193010387
   102   -0.001628291462
   103    0.003999632367
   104    0.003470368686
   105   -0.000070369032
   106    0.000010759568
   107    0.000027092997
   108    0.000025031446
   109    0.000162336636
   110   -0.000018146840
   111   -0.000078104696
   112    0.000134011782
   113    0.000190203666
   114   -0.000416868870
   115    0.001667144712
   116   -0.000647313606
   117   -0.000672722584
   118   -0.000086917249
   119   -0.000018604995
   120    0.000176126407
   121   -0.000210860868
   122   -0.000063664415
   123    0.000093929234
   124   -0.000039738494
Sym=        a    
Ene=  -0.15749917826751E+02
Spin=       Alpha
Occup=       2.0000000000
     1   -0.029653565799
     2   -0.041597728199
     3   -0.001573939422
     4    0.001302650376
     5   -0.000132281280
     6    0.000117785368
     7    0.000150705223
     8    0.000226877418
     9   -0.001641738301
    10   -0.000820774761
    11    0.001239271210
    12    0.000026410150
    13    0.000008034931
    14   -0.000037576230
    15   -0.000092008620
    16   -0.000040856320
    17   -0.000092317008
    18    0.000026710363
    19    0.000088026461
    20   -0.000758745826
    21   -0.000105646223
    22   -0.000550244930
    23    0.000217838016
    24    0.001009399087
    25    0.000006457979
    26    0.000139750572
    27    0.000198832764
    28   -0.000074724427
    29   -0.000001377093
    30    0.000125170181
    31   -0.000168504999
    32    0.366372802894
    33    0.513970308879
    34    0.018982390129
    35   -0.015490292668
    36    0.001267113711
    37    0.001963432830
    38    0.002002437992
    39   -0.001978981950
    40   -0.005103047731
    41   -0.004290667575
    42    0.005384482616
    43   -0.000054996302
    44   -0.000077493847
    45    0.000052850677
    46   -0.000020541990
    47   -0.000132726520
    48   -0.000184815306
    49   -0.000027582570
    50    0.000194457276
    51   -0.000206323785
    52    0.001839154794
    53    0.001400153993
    54   -0.000213356947
    55   -0.001257595112
    56   -0.000136094425
    57   -0.000157508114
    58   -0.000099791381
    59    0.000073132605
    60    0.000106593733
    61    0.000049799687
    62   -0.000093182071
    63   -0.073076281827
    64   -0.102514619029
    65   -0.003842347965
    66    0.003268615405
    67   -0.000248786098
    68   -0.000464064800
    69    0.000385978446
    70   -0.000348805387
    71   -0.000547777406
    72   -0.001322885228
    73    0.002373891446
    74    0.000054931540
    75   -0.000009723431
    76   -0.000009158499
    77    0.000074718907
    78   -0.000051126233
    79   -0.000065744409
    80   -0.000062260152
    81    0.000114966402
    82    0.000615613955
    83    0.000171231623
    84   -0.001170655588
    85   -0.000504245401
    86    0.000391176166
    87   -0.000026997820
    88    0.000092060991
    89   -0.000222215301
    90   -0.000166173281
    91   -0.000022002627
    92    0.000033809369
    93    0.000137946866
    94   -0.247829731302
    95   -0.347669004413
    96   -0.012923396933
    97    0.010749902619
    98   -0.000849244935
    99    0.001325610427
   100   -0.001403003517
   101   -0.001312412535
   102   -0.003988335672
   103    0.002121538684
   104    0.004189542257
   105   -0.000035959616
   106    0.000085136403
   107    0.000033054982
   108    0.000044149728
   109    0.000032555707
   110   -0.000148921697
   111    0.000061930261
   112    0.000162608821
   113    0.000346880852
   114   -0.001742976284
   115    0.000744091297
   116    0.000499914103
   117   -0.000632996763
   118   -0.000093248572
   119   -0.000202327998
   120    0.000071575736
   121    0.000165649562
   122   -0.000073078947
   123   -0.000040666708
   124    0.000062690532
Sym=        a    
Ene=  -0.16530904023355E+01
Spin=       Alpha
Occup=       2.0000000000
     1   -0.045753160595
     2   -0.105596184100
     3    0.149058255728
     4    0.178961877185
     5    0.018322711375
     6   -0.048879476422
     7   -0.048810971531
     8   -0.048923380877
     9   -0.041741596809
    10   -0.041825082579
    11   -0.041649267970
    12   -0.002667015973
    13   -0.002675603355
    14   -0.002656334688
    15   -0.000001832233
    16    0.004628930514
    17    0.004567720662
    18    0.000001912004
    19    0.004508595577
    20   -0.000115315775
    21    0.010457732736
    22    0.010430433597
    23   -0.000064158033
    24    0.010404811252
    25    0.002119744578
    26   -0.001285031037
    27   -0.001237116230
    28   -0.000015954502
    29   -0.001025320727
    30    0.001609143101
    31   -0.001573349342
    32   -0.045444564897
    33   -0.104884867142
    34    0.148173409806
    35    0.177576882644
    36    0.018422663885
    37    0.048116024525
    38    0.048440987996
    39   -0.049100193555
    40    0.041072648765
    41    0.041286245707
    42   -0.041778066487
    43    0.002661645122
    44    0.002713652348
    45   -0.002703522304
    46    0.000074636885
    47   -0.004586781646
    48   -0.004606211274
    49   -0.000044169098
    50    0.004459604632
    51    0.000112995829
    52   -0.010367921741
    53   -0.010405766721
    54   -0.000068428640
    55    0.010181149628
    56    0.002067520699
    57    0.001289526590
    58    0.001283460884
    59    0.000005999779
    60   -0.001034019079
    61   -0.001616199420
    62    0.001553736946
    63   -0.046061422581
    64   -0.106306321430
    65    0.149928166342
    66    0.180389119754
    67    0.018207353591
    68    0.049625555489
    69   -0.048617601152
    70    0.049288822792
    71    0.042424588725
    72   -0.041700110912
    73    0.042202033340
    74    0.002668431686
    75   -0.002627056048
    76    0.002616058047
    77   -0.000002616759
    78    0.004675278357
    79   -0.004525841279
    80    0.000088309558
    81   -0.004544622037
    82   -0.000004781115
    83    0.010687643958
    84   -0.010458002824
    85    0.000137262016
    86   -0.010495653082
    87   -0.002107584763
    88    0.001279253029
    89   -0.001252664226
    90    0.000063739916
    91   -0.001012767368
    92   -0.001604568366
    93   -0.001625989895
    94   -0.045748997141
    95   -0.105586329827
    96    0.149039199782
    97    0.178964983085
    98    0.018315433258
    99   -0.048865274876
   100    0.049190036673
   101    0.048528548151
   102   -0.041741343593
   103    0.041956739373
   104    0.041520734123
   105   -0.002665646786
   106    0.002716916401
   107    0.002612546895
   108   -0.000078625141
   109   -0.004547882454
   110    0.004565508518
   111   -0.000044916557
   112   -0.004586117662
   113   -0.000122483888
   114   -0.010394334911
   115    0.010430795763
   116   -0.000070125461
   117   -0.010469849013
   118   -0.002114119713
   119   -0.001252729837
   120    0.001200394738
   121   -0.000033469289
   122   -0.001024118279
   123    0.001635905968
   124    0.001606796808
Sym=        a    
Ene=  -0.10444032382083E+01
Spin=       Alpha
Occup=       2.0000000000
     1   -0.056238440428
     2   -0.131904272704
     3    0.194249230950
     4    0.311923136003
     5    0.096448869052
     6   -0.012211037065
     7    0.076455048955
     8   -0.054483103667
     9   -0.029443150966
    10    0.045217246430
    11   -0.065317168184
    12   -0.003591663170
    13    0.009474716013
    14   -0.009914545867
    15    0.005067738875
    16    0.004954824047
    17   -0.001456327024
    18    0.004546823910
    19   -0.004584189612
    20    0.008564958697
    21    0.016030128605
    22    0.004408442979
    23    0.007635810714
    24   -0.001344503986
    25    0.000300138314
    26   -0.002777893288
    27   -0.001547095122
    28   -0.002068106419
    29    0.000325605848
    30   -0.001455576967
    31   -0.000313856325
    32    0.060191270500
    33    0.141168925082
    34   -0.207959708325
    35   -0.333827663315
    36   -0.103422121669
    37   -0.014499837133
    38    0.072664269706
    39    0.046016505457
    40   -0.032725056422
    41    0.040866329481
    42    0.059859912071
    43   -0.004115585176
    44    0.008769145581
    45    0.008896631186
    46   -0.004427296665
    47    0.004484971648
    48   -0.001817123014
    49   -0.004431078819
    50    0.004095199200
    51   -0.007650895526
    52    0.015825833576
    53    0.004279140769
    54   -0.007471805523
    55    0.000054155097
    56   -0.000339596625
    57   -0.002573448735
    58   -0.001361804298
    59    0.002033298972
    60   -0.000376089541
    61   -0.001243457209
    62   -0.000478501323
    63   -0.033173159418
    64   -0.077807599931
    65    0.114499107666
    66    0.184240838644
    67    0.056740892990
    68    0.066608007721
    69    0.097420972636
    70    0.023407915426
    71    0.067741856927
    72    0.070857152777
    73    0.031154406392
    74    0.010829431502
    75    0.013282691195
    76    0.004476505090
    77    0.002220802307
    78    0.006615524641
    79    0.005308611948
    80    0.008320932986
    81    0.002244113658
    82    0.003736423558
    83    0.016266115815
    84    0.005569017345
    85    0.014148109209
    86   -0.000085948752
    87   -0.000239177691
    88    0.002120250448
    89    0.000151799264
    90    0.003828497589
    91    0.000291593406
    92    0.001829127631
    93   -0.001413028370
    94    0.029697501591
    95    0.069650018169
    96   -0.102470310274
    97   -0.165217823277
    98   -0.050867308000
    99    0.062411842731
   100    0.099211316104
   101   -0.031148915854
   102    0.063146904045
   103    0.073470960737
   104   -0.036667145689
   105    0.010163604349
   106    0.013670021140
   107   -0.005556574048
   108   -0.002933034053
   109    0.006790891714
   110    0.004855903296
   111   -0.008253409640
   112   -0.002575788854
   113   -0.004956763918
   114    0.016249693561
   115    0.005163802994
   116   -0.014001301568
   117   -0.000938498833
   118    0.000119193429
   119    0.002313044224
   120   -0.000107629804
   121   -0.003767421745
   122   -0.000179420496
   123    0.001944539038
   124   -0.001327553287
Sym=        a    
Ene=  -0.10410293956692E+01
Spin=       Alpha
Occup=       2.0000000000
     1   -0.015944574580
     2   -0.037398709430
     3    0.055043791824
     4    0.088819604318
     5    0.027731678920
     6    0.106068082386
     7   -0.051375966935
     8   -0.050869137721
     9    0.084171822416
    10   -0.048904016473
    11   -0.048796025230
    12    0.015196389576
    13   -0.008140174642
    14   -0.008172409985
    15    0.004520944330
    16   -0.003883106170
    17    0.007407354717
    18   -0.007995939531
    19   -0.003926120972
    20    0.007754502644
    21   -0.005062098709
    22    0.015642732193
    23   -0.013601392244
    24   -0.005235920269
    25   -0.000169388373
    26   -0.000639795688
    27   -0.002732833106
    28    0.003653353658
    29    0.000101667913
    30    0.000722314205
    31    0.002412752216
    32    0.042860754686
    33    0.100530924875
    34   -0.148116119901
    35   -0.238201211140
    36   -0.074742228703
    37    0.083047672471
    38   -0.073469983819
    39   -0.000777059782
    40    0.055521857594
    41   -0.076946952209
    42    0.014317109595
    43    0.010830449317
    44   -0.012463049808
    45    0.001481691862
    46   -0.000217369947
    47   -0.005908673565
    48    0.005393661028
    49    0.007896716121
    50    0.000578505748
    51   -0.000444454311
    52   -0.005448241574
    53    0.015331695987
    54    0.013455774203
    55   -0.004320703278
    56   -0.000495020156
    57    0.000695207319
    58   -0.001473414855
    59   -0.003643513048
    60   -0.000259174316
    61    0.001872681778
    62    0.001239662784
    63    0.042646400853
    64    0.100030032011
    65   -0.147087739248
    66   -0.238025425896
    67   -0.073964304693
    68    0.083346210655
    69   -0.001309659384
    70   -0.074538595351
    71    0.055363791477
    72    0.013835111739
    73   -0.078231252385
    74    0.010885109415
    75    0.001211669132
    76   -0.012527810794
    77   -0.006839569349
    78    0.000480334210
    79    0.005371884796
    80    0.004177784839
    81   -0.005954705487
    82   -0.011702680830
    83   -0.004595123988
    84    0.015314049096
    85    0.007059488074
    86   -0.005496138190
    87   -0.000070189144
    88   -0.002099236197
    89    0.003170694523
    90    0.001886938769
    91   -0.000293759005
    92   -0.000203847675
    93   -0.001865646471
    94   -0.069563199801
    95   -0.163163508185
    96    0.240160815770
    97    0.387416848307
    98    0.120979563021
    99    0.060310746539
   100    0.022476230475
   101    0.021180284236
   102    0.026696999085
   103    0.043464564976
   104    0.042161793272
   105    0.006515888916
   106    0.005775666977
   107    0.005597155527
   108    0.002304232487
   109    0.002572141657
   110    0.003355672608
   111   -0.004211550240
   112    0.002538034649
   113    0.003839067762
   114   -0.004071511856
   115    0.015002593102
   116   -0.007230780354
   117   -0.004206032418
   118   -0.000665468454
   119   -0.000739863956
   120    0.001812107338
   121   -0.001943241554
   122    0.000448486575
   123    0.000966660874
   124   -0.000707276017
Sym=        a    
Ene=  -0.10377047615503E+01
Spin=       Alpha
Occup=       2.0000000000
     1   -0.056078546928
     2   -0.131540447620
     3    0.193514758614
     4    0.313602416240
     5    0.098899150964
     6   -0.008592820616
     7   -0.052562331347
     8    0.078263445779
     9   -0.027467495911
    10   -0.064573334883
    11    0.046415040145
    12   -0.003448902630
    13   -0.009937246770
    14    0.009564232917
    15   -0.006305132459
    16   -0.004706627327
    17   -0.001627678685
    18   -0.002245671677
    19    0.004594713004
    20   -0.010888278360
    21   -0.001466117998
    22    0.004187049527
    23   -0.003835708204
    24    0.015787177895
    25    0.001195204428
    26    0.002030520608
    27    0.001491675430
    28    0.000968554540
    29    0.000395662471
    30    0.002252607360
    31   -0.001348891944
    32   -0.033553708392
    33   -0.078703391973
    34    0.115873185470
    35    0.187362585720
    36    0.059306504916
    37    0.065377397360
    38    0.022270457620
    39    0.096246124028
    40    0.067287369675
    41    0.030842558856
    42    0.069680354660
    43    0.011119118939
    44    0.004651659702
    45    0.013139993600
    46   -0.008187571736
    47    0.001992994652
    48    0.005137206862
    49    0.002131618143
    50    0.006377602301
    51   -0.014013500045
    52   -0.000603959667
    53    0.005152399999
    54    0.003607311029
    55    0.016085802957
    56    0.001147882486
    57   -0.002232580784
    58   -0.002844305090
    59   -0.001014786594
    60    0.000140292909
    61   -0.001613441635
    62    0.002407624034
    63    0.060152554075
    64    0.141102964330
    65   -0.207512196555
    66   -0.336420569228
    67   -0.105877736012
    68   -0.013135020066
    69    0.045451647944
    70    0.075225127636
    71   -0.032786745779
    72    0.059648000901
    73    0.042173319026
    74   -0.004220916959
    75    0.008913865392
    76    0.008973792015
    77    0.006069201298
    78    0.004188729287
    79   -0.001873089388
    80    0.001610176817
    81    0.004458465043
    82    0.010369761775
    83   -0.000115362627
    84    0.004219039429
    85    0.002610744054
    86    0.015893621942
    87    0.001216485533
    88    0.001851917244
    89   -0.001418073165
    90    0.000697110098
    91   -0.000401241833
    92    0.002110570227
    93    0.001497337981
    94    0.028999143490
    95    0.068025335876
    96   -0.100175207797
    97   -0.161658982374
    98   -0.051203254876
    99    0.062724742310
   100   -0.030178905874
   101    0.101264335215
   102    0.063286055228
   103   -0.035762226713
   104    0.075651864339
   105    0.010489381389
   106   -0.005614611745
   107    0.014053165421
   108    0.008545996354
   109   -0.002668059574
   110    0.004978295200
   111   -0.001642718647
   112    0.006810551866
   113    0.014650932093
   114   -0.001244900338
   115    0.005459530198
   116   -0.002798415717
   117    0.016202099210
   118    0.001018555452
   119   -0.002509952718
   120    0.002944372906
   121   -0.000753109758
   122   -0.000199441122
   123   -0.001746795534
   124   -0.002379704534
Sym=        a    
Ene=  -0.68590060311866E+00
Spin=       Alpha