 argument  1 = N4.nw
                                         
                                         


              Northwest Computational Chemistry Package (NWChem) 6.8
              ------------------------------------------------------


                    Environmental Molecular Sciences Laboratory
                       Pacific Northwest National Laboratory
                                Richland, WA 99352

                              Copyright (c) 1994-2017
                       Pacific Northwest National Laboratory
                            Battelle Memorial Institute

             NWChem is an open-source computational chemistry package
                        distributed under the terms of the
                      Educational Community License (ECL) 2.0
             A copy of the license is included with this distribution
                              in the LICENSE.TXT file

                                  ACKNOWLEDGMENT
                                  --------------

            This software and its documentation were developed at the
            EMSL at Pacific Northwest National Laboratory, a multiprogram
            national laboratory, operated for the U.S. Department of Energy
            by Battelle under Contract Number DE-AC05-76RL01830. Support
            for this work was provided by the Department of Energy Office
            of Biological and Environmental Research, Office of Basic
            Energy Sciences, and the Office of Advanced Scientific Computing.


           Job information
           ---------------

    hostname        = vladimir-Kubuntu-16
    program         = nwchem
    date            = Sat Feb 16 13:59:43 2019

    compiled        = Wed_Aug_15_19:14:19_2018
    source          = /home/edo/debichem-team/nwchem/nwchem-6.8.1
    nwchem branch   = 6.8.1
    nwchem revision = v6.8-133-ge032219
    ga revision     = 5.6.5
    use scalapack   = T
    input           = N4.nw
    prefix          = N4.
    data base       = ./N4.db
    status          = startup
    nproc           =        1
    time left       =     -1s



           Memory information
           ------------------

    heap     =   13107198 doubles =    100.0 Mbytes
    stack    =   13107195 doubles =    100.0 Mbytes
    global   =   26214400 doubles =    200.0 Mbytes (distinct from heap & stack)
    total    =   52428793 doubles =    400.0 Mbytes
    verify   = yes
    hardfail = no 


           Directory information
           ---------------------

  0 permanent = .
  0 scratch   = .




                                NWChem Input Module
                                -------------------


                             test HF/def2-TZVP energy
                             ------------------------

 Scaling coordinates for geometry "geometry" by  1.889725989
 (inverse scale =  0.529177249)

 Turning off AUTOSYM since
 SYMMETRY directive was detected!


          ------
          auto-z
          ------


                             Geometry "geometry" -> ""
                             -------------------------

 Output coordinates in angstroms (scale by  1.889725989 to convert to a.u.)

  No.       Tag          Charge          X              Y              Z
 ---- ---------------- ---------- -------------- -------------- --------------
    1 N                    7.0000     0.52000000     0.52750000     0.51250000
    2 N                    7.0000    -0.52000000    -0.52250000     0.52250000
    3 N                    7.0000    -0.52000000     0.51750000    -0.51750000
    4 N                    7.0000     0.52000000    -0.52250000    -0.51750000

      Atomic Mass 
      ----------- 

      N                 14.003070


 Effective nuclear repulsion energy (a.u.)     105.7779480979

            Nuclear Dipole moment (a.u.) 
            ----------------------------
        X                 Y               Z
 ---------------- ---------------- ----------------
     0.0000000000     0.0000000000     0.0000000000



                                Z-matrix (autoz)
                                -------- 

 Units are Angstrom for bonds and degrees for angles

      Type          Name      I     J     K     L     M      Value
      ----------- --------  ----- ----- ----- ----- ----- ----------
    1 Stretch                  1     2                       1.47790
    2 Stretch                  1     3                       1.46376
    3 Stretch                  1     4                       1.47085
    4 Stretch                  2     3                       1.47078
    5 Stretch                  2     4                       1.47078
    6 Stretch                  3     4                       1.47078
    7 Bend                     1     2     3                59.52518
    8 Bend                     1     2     4                59.84274
    9 Bend                     1     3     2                60.47941
   10 Bend                     1     3     4                60.16083
   11 Bend                     1     4     2                60.31908
   12 Bend                     1     4     3                59.68296
   13 Bend                     2     1     3                59.99541
   14 Bend                     2     1     4                59.83818
   15 Bend                     2     3     4                60.00000
   16 Bend                     2     4     3                60.00000
   17 Bend                     3     1     4                60.15621
   18 Bend                     3     2     4                60.00000
   19 Torsion                  1     2     3     4          70.52878
   20 Torsion                  1     2     4     3         -70.01104
   21 Torsion                  1     3     2     4         -70.52878
   22 Torsion                  1     3     4     2          71.04985
   23 Torsion                  1     4     2     3          70.01104
   24 Torsion                  1     4     3     2         -71.04985
   25 Torsion                  2     1     3     4         -70.26888
   26 Torsion                  2     1     4     3          70.52462
   27 Torsion                  2     3     1     4          70.26888
   28 Torsion                  2     4     1     3         -70.52462
   29 Torsion                  3     1     2     4          70.78827
   30 Torsion                  3     2     1     4         -70.78827


            XYZ format geometry
            -------------------
     4
 geometry
 N                     0.52000000     0.52750000     0.51250000
 N                    -0.52000000    -0.52250000     0.52250000
 N                    -0.52000000     0.51750000    -0.51750000
 N                     0.52000000    -0.52250000    -0.51750000

 ==============================================================================
                                internuclear distances
 ------------------------------------------------------------------------------
       center one      |      center two      | atomic units |  angstroms
 ------------------------------------------------------------------------------
    2 N                |   1 N                |     2.79283  |     1.47790
    3 N                |   1 N                |     2.76611  |     1.46376
    3 N                |   2 N                |     2.77938  |     1.47078
    4 N                |   1 N                |     2.77950  |     1.47085
    4 N                |   2 N                |     2.77938  |     1.47078
    4 N                |   3 N                |     2.77938  |     1.47078
 ------------------------------------------------------------------------------
                         number of included internuclear distances:          6
 ==============================================================================



 ==============================================================================
                                 internuclear angles
 ------------------------------------------------------------------------------
        center 1       |       center 2       |       center 3       |  degrees
 ------------------------------------------------------------------------------
    1 N                |   3 N                |   2 N                |    60.48
    1 N                |   4 N                |   2 N                |    60.32
    1 N                |   3 N                |   4 N                |    60.16
    2 N                |   3 N                |   1 N                |    60.48
    2 N                |   4 N                |   1 N                |    60.32
    2 N                |   3 N                |   4 N                |    60.00
    1 N                |   3 N                |   2 N                |    60.48
    1 N                |   3 N                |   4 N                |    60.16
    3 N                |   2 N                |   4 N                |    60.00
    1 N                |   4 N                |   2 N                |    60.32
    4 N                |   3 N                |   1 N                |    60.16
    4 N                |   2 N                |   3 N                |    60.00
 ------------------------------------------------------------------------------
                            number of included internuclear angles:         12
 ==============================================================================



  library name resolved from: environment
  library file name is: </home/vladimir/bin/nwchem-6.8/src/basis/libraries/>
  
                      Basis "ao basis" -> "" (spherical)
                      -----
  N (Nitrogen)
  ------------
            Exponent  Coefficients 
       -------------- ---------------------------------------------------------
  1 S  1.97308006E+04  0.000219
  1 S  2.95789587E+03  0.001696
  1 S  6.73221336E+02  0.008795
  1 S  1.90682495E+02  0.035359
  1 S  6.22954419E+01  0.110958
  1 S  2.26541612E+01  0.249830

  2 S  8.97914774E+00  0.406239
  2 S  3.68630024E+00  0.243382

  3 S  8.46600768E-01  1.000000

  4 S  3.36471338E-01  1.000000

  5 S  1.36476537E-01  1.000000

  6 P  4.92003805E+01  0.005555
  6 P  1.13467905E+01  0.038052
  6 P  3.42739724E+00  0.149537
  6 P  1.17855251E+00  0.349493

  7 P  4.16422050E-01  1.000000

  8 P  1.42608260E-01  1.000000

  9 D  1.65400000E+00  1.000000

 10 D  4.69000000E-01  1.000000

 11 F  1.09300000E+00  1.000000



 Summary of "ao basis" -> "" (spherical)
 ------------------------------------------------------------------------------
       Tag                 Description            Shells   Functions and Types
 ---------------- ------------------------------  ------  ---------------------
 N                         def2-TZVP                11       31   5s3p2d1f


                              NWChem Property Module
                              ----------------------


                             test HF/def2-TZVP energy

                                 NWChem SCF Module
                                 -----------------


                             test HF/def2-TZVP energy



  ao basis        = "ao basis"
  functions       =   124
  atoms           =     4
  closed shells   =    14
  open shells     =     0
  charge          =   0.00
  wavefunction    = RHF 
  input vectors   = atomic
  output vectors  = ./N4.movecs
  use symmetry    = F
  symmetry adapt  = F


 Summary of "ao basis" -> "ao basis" (spherical)
 ------------------------------------------------------------------------------
       Tag                 Description            Shells   Functions and Types
 ---------------- ------------------------------  ------  ---------------------
 N                         def2-TZVP                11       31   5s3p2d1f



 Forming initial guess at       0.1s


      Superposition of Atomic Density Guess
      -------------------------------------

 Sum of atomic energies:        -217.24620726

      Non-variational initial energy
      ------------------------------

 Total energy =    -218.688359
 1-e energy   =    -505.799462
 2-e energy   =     181.333155
 HOMO         =      -0.349706
 LUMO         =       0.117362


 Starting SCF solution at       0.5s



 ----------------------------------------------
         Quadratically convergent ROHF

 Convergence threshold     :          1.000E-07
 Maximum no. of iterations :           30
 Final Fock-matrix accuracy:          1.000E-09
 ----------------------------------------------


 Integral file          = ./N4.aoints.0
 Record size in doubles =  65536        No. of integs per rec  =  43688
 Max. records in memory =      0        Max. records in file   = 180719
 No. of bits per label  =      8        No. of bits per value  =     64


 #quartets = 4.720D+05 #integrals = 2.719D+07 #direct =  0.0% #cached =100.0%


              iter       energy          gnorm     gmax       time
             ----- ------------------- --------- --------- --------
                 1     -217.5209195236  1.23D+00  2.52D-01      3.0
                 2     -217.5938676310  2.18D-01  4.57D-02      3.8
                 3     -217.5992650336  2.25D-02  6.84D-03      5.1
                 4     -217.5993403225  1.96D-04  4.17D-05      7.2
                 5     -217.5993403254  2.37D-08  6.68D-09     10.8


       Final RHF  results 
       ------------------ 

         Total SCF energy =   -217.599340325411
      One-electron energy =   -504.287974303753
      Two-electron energy =    180.910685880455
 Nuclear repulsion energy =    105.777948097886

        Time for solution =      9.9s


             Final eigenvalues
             -----------------

              1      
    1  -15.7509
    2  -15.7500
    3  -15.7499
    4  -15.7499
    5   -1.6531
    6   -1.0444
    7   -1.0410
    8   -1.0377
    9   -0.6859
   10   -0.5703
   11   -0.5692
   12   -0.5680
   13   -0.5342
   14   -0.5289
   15    0.1889
   16    0.1910
   17    0.1925
   18    0.2120
   19    0.2137
   20    0.2157
   21    0.3593
   22    0.4682
   23    0.4689
   24    0.4697

                       ROHF Final Molecular Orbital Analysis
                       -------------------------------------

 Vector    5  Occ=2.000000D+00  E=-1.653090D+00
              MO Center= -1.3D-05,  2.5D-03, -2.4D-03, r^2= 6.9D-01
   Bfn.  Coefficient  Atom+Function         Bfn.  Coefficient  Atom+Function  
  ----- ------------  ---------------      ----- ------------  ---------------
    66      0.180389  3 N  s                  4      0.178962  1 N  s          
    97      0.178965  4 N  s                 35      0.177577  2 N  s          

 Vector    6  Occ=2.000000D+00  E=-1.044403D+00
              MO Center= -1.4D-02, -3.8D-03,  9.2D-02, r^2= 1.3D+00
   Bfn.  Coefficient  Atom+Function         Bfn.  Coefficient  Atom+Function  
  ----- ------------  ---------------      ----- ------------  ---------------
    35     -0.333828  2 N  s                  4      0.311923  1 N  s          
    34     -0.207960  2 N  s                  3      0.194249  1 N  s          
    66      0.184241  3 N  s                 97     -0.165218  4 N  s          

 Vector    7  Occ=2.000000D+00  E=-1.041029D+00
              MO Center=  2.8D-02, -9.0D-02, -8.9D-02, r^2= 1.3D+00
   Bfn.  Coefficient  Atom+Function         Bfn.  Coefficient  Atom+Function  
  ----- ------------  ---------------      ----- ------------  ---------------
    97      0.387417  4 N  s                 96      0.240161  4 N  s          
    35     -0.238201  2 N  s                 66     -0.238025  3 N  s          
    95     -0.163164  4 N  s          

 Vector    8  Occ=2.000000D+00  E=-1.037705D+00
              MO Center= -1.4D-02,  9.5D-02, -4.6D-03, r^2= 1.3D+00
   Bfn.  Coefficient  Atom+Function         Bfn.  Coefficient  Atom+Function  
  ----- ------------  ---------------      ----- ------------  ---------------
    66     -0.336421  3 N  s                  4      0.313602  1 N  s          
    65     -0.207512  3 N  s                  3      0.193515  1 N  s          
    35      0.187363  2 N  s                 97     -0.161659  4 N  s          

 Vector    9  Occ=2.000000D+00  E=-6.859006D-01
              MO Center= -9.8D-06,  3.7D-03, -3.7D-03, r^2= 2.0D+00
   Bfn.  Coefficient  Atom+Function         Bfn.  Coefficient  Atom+Function  
  ----- ------------  ---------------      ----- ------------  ---------------
     4      0.130001  1 N  s                 35      0.130034  2 N  s          
    66      0.129922  3 N  s                 97      0.129993  4 N  s          

 Vector   10  Occ=2.000000D+00  E=-5.702922D-01
              MO Center= -1.6D-01, -1.6D-01,  3.2D-01, r^2= 1.6D+00
   Bfn.  Coefficient  Atom+Function         Bfn.  Coefficient  Atom+Function  
  ----- ------------  ---------------      ----- ------------  ---------------
    35      0.229123  2 N  s                  8     -0.207484  1 N  pz         
    11     -0.196529  1 N  pz                39      0.180019  2 N  pz         
    68      0.173897  3 N  px               100      0.170282  4 N  py         
    34      0.167161  2 N  s                 42      0.167396  2 N  pz         
    71      0.166788  3 N  px               103      0.163219  4 N  py         

 Vector   11  Occ=2.000000D+00  E=-5.691538D-01
              MO Center=  3.2D-01, -1.4D-01, -1.5D-01, r^2= 1.7D+00
   Bfn.  Coefficient  Atom+Function         Bfn.  Coefficient  Atom+Function  
  ----- ------------  ---------------      ----- ------------  ---------------
    97     -0.225520  4 N  s                  6      0.208104  1 N  px         
     9      0.197265  1 N  px                99     -0.183025  4 N  px         
    70     -0.172516  3 N  pz               102     -0.170758  4 N  px         
    73     -0.165739  3 N  pz                38     -0.164645  2 N  py         
    96     -0.164442  4 N  s                 41     -0.158038  2 N  py         

 Vector   12  Occ=2.000000D+00  E=-5.679532D-01
              MO Center= -1.6D-01,  3.0D-01, -1.8D-01, r^2= 1.7D+00
   Bfn.  Coefficient  Atom+Function         Bfn.  Coefficient  Atom+Function  
  ----- ------------  ---------------      ----- ------------  ---------------
    66      0.228894  3 N  s                  7     -0.205302  1 N  py         
    10     -0.195285  1 N  py               101      0.179483  4 N  pz         
    69      0.175342  3 N  py               104      0.172190  4 N  pz         
    37      0.171114  2 N  px                65      0.166823  3 N  s          
    40      0.164384  2 N  px                72      0.163611  3 N  py         

 Vector   13  Occ=2.000000D+00  E=-5.341801D-01
              MO Center= -4.7D-05, -1.3D-02,  2.6D-03, r^2= 1.5D+00
   Bfn.  Coefficient  Atom+Function         Bfn.  Coefficient  Atom+Function  
  ----- ------------  ---------------      ----- ------------  ---------------
    38     -0.182715  2 N  py               100     -0.180495  4 N  py         
     7      0.179260  1 N  py                41     -0.179700  2 N  py         
    69      0.178075  3 N  py               103     -0.177719  4 N  py         
    10      0.176255  1 N  py                72      0.175278  3 N  py         

 Vector   14  Occ=2.000000D+00  E=-5.289117D-01
              MO Center= -4.6D-05, -2.5D-03,  1.2D-02, r^2= 1.5D+00
   Bfn.  Coefficient  Atom+Function         Bfn.  Coefficient  Atom+Function  
  ----- ------------  ---------------      ----- ------------  ---------------
    39      0.183309  2 N  pz                 8      0.182377  1 N  pz         
   101     -0.180886  4 N  pz                11      0.179726  1 N  pz         
    42      0.180439  2 N  pz                70     -0.179098  3 N  pz         
   104     -0.178018  4 N  pz                73     -0.176450  3 N  pz         

 Vector   15  Occ=0.000000D+00  E= 1.889235D-01
              MO Center=  4.6D-02, -3.4D-02,  2.8D-01, r^2= 2.1D+00
   Bfn.  Coefficient  Atom+Function         Bfn.  Coefficient  Atom+Function  
  ----- ------------  ---------------      ----- ------------  ---------------
    45      0.544456  2 N  pz                14     -0.529321  1 N  pz         
    12      0.509354  1 N  px                44      0.389829  2 N  py         
    43      0.386338  2 N  px               105     -0.351406  4 N  px         
    13      0.275868  1 N  py                 5     -0.260332  1 N  s          
   106     -0.256647  4 N  py                 8     -0.236542  1 N  pz         

 Vector   16  Occ=0.000000D+00  E= 1.909620D-01
              MO Center= -1.4D-01, -1.6D-01, -1.9D-01, r^2= 2.1D+00
   Bfn.  Coefficient  Atom+Function         Bfn.  Coefficient  Atom+Function  
  ----- ------------  ---------------      ----- ------------  ---------------
   107      0.524734  4 N  pz                76     -0.518446  3 N  pz         
    44      0.512459  2 N  py               106     -0.507000  4 N  py         
    74      0.472875  3 N  px                43     -0.425869  2 N  px         
   101      0.217685  4 N  pz                70     -0.216551  3 N  pz         
    73     -0.216114  3 N  pz               104      0.217109  4 N  pz         

 Vector   17  Occ=0.000000D+00  E= 1.925459D-01
              MO Center=  9.4D-02,  1.5D-01, -4.9D-02, r^2= 2.2D+00
   Bfn.  Coefficient  Atom+Function         Bfn.  Coefficient  Atom+Function  
  ----- ------------  ---------------      ----- ------------  ---------------
    13      0.639714  1 N  py                75     -0.609820  3 N  py         
   105      0.508314  4 N  px                43      0.355214  2 N  px         
    12     -0.348513  1 N  px               107      0.321198  4 N  pz         
     5     -0.264831  1 N  s                 10      0.250562  1 N  py         
    72     -0.247892  3 N  py                 7      0.243909  1 N  py         

 Vector   18  Occ=0.000000D+00  E= 2.119749D-01
              MO Center=  4.0D-03,  7.1D-03, -1.1D-01, r^2= 3.9D+00
   Bfn.  Coefficient  Atom+Function         Bfn.  Coefficient  Atom+Function  
  ----- ------------  ---------------      ----- ------------  ---------------
    36      2.896967  2 N  s                  5     -2.347919  1 N  s          
    67     -1.283702  3 N  s                 44      1.241665  2 N  py         
    13      1.123866  1 N  py                75      0.995365  3 N  py         
   106      0.872070  4 N  py                43      0.844077  2 N  px         
    12      0.748156  1 N  px                45     -0.747467  2 N  pz         

 Vector   19  Occ=0.000000D+00  E= 2.136842D-01
              MO Center= -3.4D-02,  5.2D-02,  5.3D-02, r^2= 4.0D+00
   Bfn.  Coefficient  Atom+Function         Bfn.  Coefficient  Atom+Function  
  ----- ------------  ---------------      ----- ------------  ---------------
    98      3.435669  4 N  s                 36     -1.701588  2 N  s          
    67     -1.392641  3 N  s                105     -1.267028  4 N  px         
   107      1.076323  4 N  pz               106      0.995880  4 N  py         
    43     -0.918228  2 N  px                74     -0.871559  3 N  px         
    45      0.748443  2 N  pz                75      0.581517  3 N  py         

 Vector   20  Occ=0.000000D+00  E= 2.157493D-01
              MO Center=  2.4D-02, -1.1D-02,  8.9D-03, r^2= 4.0D+00
   Bfn.  Coefficient  Atom+Function         Bfn.  Coefficient  Atom+Function  
  ----- ------------  ---------------      ----- ------------  ---------------
    67      3.057107  3 N  s                  5     -2.614300  1 N  s          
    76      1.301099  3 N  pz                14      1.220014  1 N  pz         
    74      1.038979  3 N  px                12      0.943705  1 N  px         
    36     -0.939936  2 N  s                 45      0.813871  2 N  pz         
   107      0.738073  4 N  pz                75     -0.608835  3 N  py         

 Vector   21  Occ=0.000000D+00  E= 3.592569D-01
              MO Center=  5.9D-05,  5.1D-03, -4.9D-03, r^2= 5.5D+00
   Bfn.  Coefficient  Atom+Function         Bfn.  Coefficient  Atom+Function  
  ----- ------------  ---------------      ----- ------------  ---------------
    36      0.613857  2 N  s                  5      0.580393  1 N  s          
    98      0.580410  4 N  s                 67      0.546029  3 N  s          
    35     -0.412826  2 N  s                  4     -0.407391  1 N  s          
    97     -0.407316  4 N  s                 66     -0.401718  3 N  s          
    76     -0.323698  3 N  pz                74     -0.321969  3 N  px         

 Vector   22  Occ=0.000000D+00  E= 4.681534D-01
              MO Center= -1.2D-01, -4.7D-02,  6.3D-01, r^2= 5.1D+00
   Bfn.  Coefficient  Atom+Function         Bfn.  Coefficient  Atom+Function  
  ----- ------------  ---------------      ----- ------------  ---------------
    36      1.392993  2 N  s                  5     -1.265651  1 N  s          
    45     -1.042001  2 N  pz                43      0.995726  2 N  px         
    44      0.961602  2 N  py                14      0.956554  1 N  pz         
    12      0.914182  1 N  px                13      0.835865  1 N  py         
    67     -0.661487  3 N  s                 74     -0.547521  3 N  px         

 Vector   23  Occ=0.000000D+00  E= 4.689380D-01
              MO Center=  2.6D-01, -6.0D-01, -5.6D-01, r^2= 4.7D+00
   Bfn.  Coefficient  Atom+Function         Bfn.  Coefficient  Atom+Function  
  ----- ------------  ---------------      ----- ------------  ---------------
    98      1.569847  4 N  s                106      1.194832  4 N  py         
   107      1.161369  4 N  pz               105     -1.113080  4 N  px         
    67     -0.830276  3 N  s                 36     -0.823067  2 N  s          
    76     -0.704592  3 N  pz                44     -0.696018  2 N  py         
    45      0.619026  2 N  pz                75      0.571441  3 N  py         

 Vector   24  Occ=0.000000D+00  E= 4.696854D-01
              MO Center= -1.4D-01,  6.5D-01, -6.3D-02, r^2= 5.0D+00
   Bfn.  Coefficient  Atom+Function         Bfn.  Coefficient  Atom+Function  
  ----- ------------  ---------------      ----- ------------  ---------------
    67      1.310701  3 N  s                  5     -1.130980  1 N  s          
    75     -1.055900  3 N  py                74      1.017080  3 N  px         
    13      0.941804  1 N  py                76      0.901877  3 N  pz         
    12      0.859291  1 N  px                14      0.788229  1 N  pz         
    36     -0.555834  2 N  s                 43     -0.511335  2 N  px         

 Vector   25  Occ=0.000000D+00  E= 4.780932D-01
              MO Center=  4.0D-04, -1.9D-03,  6.9D-04, r^2= 4.7D+00
   Bfn.  Coefficient  Atom+Function         Bfn.  Coefficient  Atom+Function  
  ----- ------------  ---------------      ----- ------------  ---------------
    13      0.635294  1 N  py                75      0.628711  3 N  py         
    44     -0.619509  2 N  py               106     -0.608875  4 N  py         
   105     -0.479091  4 N  px                43      0.469358  2 N  px         
    74      0.442976  3 N  px                12     -0.434211  1 N  px         
    41      0.284313  2 N  py               103      0.279832  4 N  py         

 Vector   26  Occ=0.000000D+00  E= 4.794734D-01
              MO Center=  3.0D-04, -6.2D-04,  3.5D-03, r^2= 4.7D+00
   Bfn.  Coefficient  Atom+Function         Bfn.  Coefficient  Atom+Function  
  ----- ------------  ---------------      ----- ------------  ---------------
   107     -0.635358  4 N  pz                76     -0.629060  3 N  pz         
    45      0.620913  2 N  pz                14      0.617055  1 N  pz         
    12     -0.478162  1 N  px                43      0.471804  2 N  px         
    74      0.443475  3 N  px               105     -0.438040  4 N  px         
    42     -0.284014  2 N  pz                11     -0.281999  1 N  pz         

 Vector   27  Occ=0.000000D+00  E= 5.384926D-01
              MO Center= -1.2D-02, -5.7D-02,  4.0D-02, r^2= 3.7D+00
   Bfn.  Coefficient  Atom+Function         Bfn.  Coefficient  Atom+Function  
  ----- ------------  ---------------      ----- ------------  ---------------
    66      1.608184  3 N  s                  4      1.562113  1 N  s          
    97      1.525352  4 N  s                 35      1.383189  2 N  s          
    67     -1.303109  3 N  s                  5     -0.999334  1 N  s          
    98     -0.781480  4 N  s                 75      0.738360  3 N  py         
    13      0.713054  1 N  py                76     -0.713656  3 N  pz         


------------------------------------------------------------
EAF file 0: "./N4.aoints.0" size=326631424 bytes
------------------------------------------------------------
               write      read    awrite     aread      wait
               -----      ----    ------     -----      ----
     calls:      623        19         0     11818     11818
   data(b): 3.27e+08  9.96e+06  0.00e+00  6.20e+09
   time(s): 0.00e+00  0.00e+00  0.00e+00  0.00e+00  0.00e+00
rate(mb/s): 0.00e+00  0.00e+00
------------------------------------------------------------


 center of mass
 --------------
 x =   0.00000000 y =   0.00000000 z =   0.00000000

 moments of inertia (a.u.)
 ------------------
         108.180184876804          -0.260030490378           0.260030490378
          -0.260030490378         107.656373456283           0.003750439765
           0.260030490378           0.003750439765         108.696495417795

  Mulliken analysis of the total density
  --------------------------------------

    Atom       Charge   Shell Charges
 -----------   ------   -------------------------------------------------------
    1 N    7     7.00   0.82  1.15  0.61  0.98  0.28  1.24  1.46  0.35  0.01  0.09  0.01
    2 N    7     7.00   0.82  1.15  0.61  0.98  0.28  1.24  1.46  0.35  0.01  0.09  0.01
    3 N    7     7.00   0.82  1.15  0.61  0.98  0.28  1.24  1.46  0.34  0.02  0.09  0.01
    4 N    7     7.00   0.82  1.15  0.61  0.98  0.28  1.24  1.46  0.35  0.01  0.09  0.01

       Multipole analysis of the density wrt the origin
       ------------------------------------------------

     L   x y z        total         open         nuclear
     -   - - -        -----         ----         -------
     0   0 0 0     -0.000000      0.000000     28.000000

     1   1 0 0     -0.000043      0.000000      0.000000
     1   0 1 0      0.002985      0.000000      0.000000
     1   0 0 1     -0.003024      0.000000      0.000000

     2   2 0 0    -16.659405      0.000000     27.037242
     2   1 1 0      0.006930      0.000000      0.129987
     2   1 0 1     -0.006903      0.000000     -0.129987
     2   0 2 0    -16.631410      0.000000     27.299090
     2   0 1 1     -0.000215      0.000000     -0.001875
     2   0 0 2    -16.687121      0.000000     26.779143


 Parallel integral file used     623 records with       0 large values

 MOLDEN output will be written to the file ./N4.molden
  do_norm_janpa  F
  do_norm_nwchem  F
  molden scftype: RHF                  spinref:                     1
  
  Molden file created 
  If you plan to use JANPA 
    run the .molden file through 
    molden2molden.jar -NormalizeBF to get the
    correct Molden normalization 
   

 Task  times  cpu:       11.1s     wall:        8.5s
 Summary of allocated global arrays
-----------------------------------
  No active global arrays



                         GA Statistics for process    0
                         ------------------------------

       create   destroy   get      put      acc     scatter   gather  read&inc
calls:  385      385     9993     6017     5969        0        0       53     
number of processes/call 1.00e+00 1.00e+00 1.00e+00 0.00e+00 0.00e+00
bytes total:             4.52e+07 2.87e+07 7.26e+06 0.00e+00 0.00e+00 4.24e+02
bytes remote:            0.00e+00 0.00e+00 0.00e+00 0.00e+00 0.00e+00 0.00e+00
Max memory consumed for GA by this process: 1599104 bytes
MA_summarize_allocated_blocks: starting scan ...
MA_summarize_allocated_blocks: scan completed: 0 heap blocks, 0 stack blocks
MA usage statistics:

	allocation statistics:
					      heap	     stack
					      ----	     -----
	current number of blocks	         0	         0
	maximum number of blocks	        20	        14
	current total bytes		         0	         0
	maximum total bytes		     80120	  27984952
	maximum total K-bytes		        81	     27985
	maximum total M-bytes		         1	        28


                                NWChem Input Module
                                -------------------





                                     CITATION
                                     --------
                Please cite the following reference when publishing
                           results obtained with NWChem:

                 M. Valiev, E.J. Bylaska, N. Govind, K. Kowalski,
              T.P. Straatsma, H.J.J. van Dam, D. Wang, J. Nieplocha,
                        E. Apra, T.L. Windus, W.A. de Jong
                 "NWChem: a comprehensive and scalable open-source
                  solution for large scale molecular simulations"
                      Comput. Phys. Commun. 181, 1477 (2010)
                           doi:10.1016/j.cpc.2010.04.018

                                      AUTHORS
                                      -------
          E. Apra, E. J. Bylaska, W. A. de Jong, N. Govind, K. Kowalski,
       T. P. Straatsma, M. Valiev, H. J. J. van Dam, D. Wang, T. L. Windus,
        J. Hammond, J. Autschbach, K. Bhaskaran-Nair, J. Brabec, K. Lopata,
    S. A. Fischer, S. Krishnamoorthy, M. Jacquelin, W. Ma, M. Klemm, O. Villa,
      Y. Chen, V. Anisimov, F. Aquino, S. Hirata, M. T. Hackler, V. Konjkov,
            D. Mejia-Rodriguez, T. Risthaus, M. Malagoli, A. Marenich,
   A. Otero-de-la-Roza, J. Mullin, P. Nichols, R. Peverati, J. Pittner, Y. Zhao,
        P.-D. Fan, A. Fonari, M. J. Williamson, R. J. Harrison, J. R. Rehr,
      M. Dupuis, D. Silverstein, D. M. A. Smith, J. Nieplocha, V. Tipparaju,
    M. Krishnan, B. E. Van Kuiken, A. Vazquez-Mayagoitia, L. Jensen, M. Swart,
      Q. Wu, T. Van Voorhis, A. A. Auer, M. Nooijen, L. D. Crosby, E. Brown,
      G. Cisneros, G. I. Fann, H. Fruchtl, J. Garza, K. Hirao, R. A. Kendall,
      J. A. Nichols, K. Tsemekhman, K. Wolinski, J. Anchell, D. E. Bernholdt,
      P. Borowski, T. Clark, D. Clerc, H. Dachsel, M. J. O. Deegan, K. Dyall,
    D. Elwood, E. Glendening, M. Gutowski, A. C. Hess, J. Jaffe, B. G. Johnson,
     J. Ju, R. Kobayashi, R. Kutteh, Z. Lin, R. Littlefield, X. Long, B. Meng,
      T. Nakajima, S. Niu, L. Pollack, M. Rosing, K. Glaesemann, G. Sandrone,
      M. Stave, H. Taylor, G. Thomas, J. H. van Lenthe, A. T. Wong, Z. Zhang.

 Total times  cpu:       11.1s     wall:        8.6s
