[Molden Format]
[Title]
 Molden file created by orca_2mkl for BaseName=./N4

[Atoms] AU
N    1   7          1.2141712962        -0.0000000000         1.1929119035 
N    2   7         -1.3902703010         0.8023367264         0.5821232275 
N    3   7          0.5808227702         0.8023367264        -1.3773978299 
N    4   7         -0.4047237654        -1.6046734527        -0.3976373012 
[GTO]
  1 0
s   9 1.0 
    45840.0000000000         0.2070013119
     6868.0000000000         0.3885023806
     1563.0000000000         0.6693241386
      442.4000000000         1.0760700264
      144.3000000000         1.5891765404
       52.1800000000         2.0467625615
       20.3400000000         2.0957271491
        8.3810000000         1.4068954098
        3.5290000000         0.4024679210
s   9 1.0 
    45840.0000000000        -0.1280239503
     6868.0000000000        -0.2451024263
     1563.0000000000        -0.4185277093
      442.4000000000        -0.6855177236
      144.3000000000        -1.0179501673
       52.1800000000        -1.4038213591
       20.3400000000        -1.5671074566
        8.3810000000        -1.4767088923
        3.5290000000        -0.6121674414
s   1 1.0 
        1.0540000000         0.7413794612
s   1 1.0 
        0.4118000000         0.3663741711
s   1 1.0 
        0.1552000000         0.1762296099
p   3 1.0 
       49.3300000000         5.8003427037
       11.3700000000         6.3555590049
        3.4350000000         5.5883087071
p   1 1.0 
        1.1820000000         1.7567579743
p   1 1.0 
        0.4173000000         0.4780799923
p   1 1.0 
        0.1428000000         0.1251268026
d   1 1.0 
        2.8370000000        17.6796605055
d   1 1.0 
        0.9680000000         2.6930967689
d   1 1.0 
        0.3350000000         0.4205314648
f   1 1.0 
        2.0270000000        27.9525230183
f   1 1.0 
        0.6850000000         2.4339063574
g   1 1.0 
        1.4270000000        17.5039221697

  2 0
s   9 1.0 
    45840.0000000000         0.2070013119
     6868.0000000000         0.3885023806
     1563.0000000000         0.6693241386
      442.4000000000         1.0760700264
      144.3000000000         1.5891765404
       52.1800000000         2.0467625615
       20.3400000000         2.0957271491
        8.3810000000         1.4068954098
        3.5290000000         0.4024679210
s   9 1.0 
    45840.0000000000        -0.1280239503
     6868.0000000000        -0.2451024263
     1563.0000000000        -0.4185277093
      442.4000000000        -0.6855177236
      144.3000000000        -1.0179501673
       52.1800000000        -1.4038213591
       20.3400000000        -1.5671074566
        8.3810000000        -1.4767088923
        3.5290000000        -0.6121674414
s   1 1.0 
        1.0540000000         0.7413794612
s   1 1.0 
        0.4118000000         0.3663741711
s   1 1.0 
        0.1552000000         0.1762296099
p   3 1.0 
       49.3300000000         5.8003427037
       11.3700000000         6.3555590049
        3.4350000000         5.5883087071
p   1 1.0 
        1.1820000000         1.7567579743
p   1 1.0 
        0.4173000000         0.4780799923
p   1 1.0 
        0.1428000000         0.1251268026
d   1 1.0 
        2.8370000000        17.6796605055
d   1 1.0 
        0.9680000000         2.6930967689
d   1 1.0 
        0.3350000000         0.4205314648
f   1 1.0 
        2.0270000000        27.9525230183
f   1 1.0 
        0.6850000000         2.4339063574
g   1 1.0 
        1.4270000000        17.5039221697

  3 0
s   9 1.0 
    45840.0000000000         0.2070013119
     6868.0000000000         0.3885023806
     1563.0000000000         0.6693241386
      442.4000000000         1.0760700264
      144.3000000000         1.5891765404
       52.1800000000         2.0467625615
       20.3400000000         2.0957271491
        8.3810000000         1.4068954098
        3.5290000000         0.4024679210
s   9 1.0 
    45840.0000000000        -0.1280239503
     6868.0000000000        -0.2451024263
     1563.0000000000        -0.4185277093
      442.4000000000        -0.6855177236
      144.3000000000        -1.0179501673
       52.1800000000        -1.4038213591
       20.3400000000        -1.5671074566
        8.3810000000        -1.4767088923
        3.5290000000        -0.6121674414
s   1 1.0 
        1.0540000000         0.7413794612
s   1 1.0 
        0.4118000000         0.3663741711
s   1 1.0 
        0.1552000000         0.1762296099
p   3 1.0 
       49.3300000000         5.8003427037
       11.3700000000         6.3555590049
        3.4350000000         5.5883087071
p   1 1.0 
        1.1820000000         1.7567579743
p   1 1.0 
        0.4173000000         0.4780799923
p   1 1.0 
        0.1428000000         0.1251268026
d   1 1.0 
        2.8370000000        17.6796605055
d   1 1.0 
        0.9680000000         2.6930967689
d   1 1.0 
        0.3350000000         0.4205314648
f   1 1.0 
        2.0270000000        27.9525230183
f   1 1.0 
        0.6850000000         2.4339063574
g   1 1.0 
        1.4270000000        17.5039221697

  4 0
s   9 1.0 
    45840.0000000000         0.2070013119
     6868.0000000000         0.3885023806
     1563.0000000000         0.6693241386
      442.4000000000         1.0760700264
      144.3000000000         1.5891765404
       52.1800000000         2.0467625615
       20.3400000000         2.0957271491
        8.3810000000         1.4068954098
        3.5290000000         0.4024679210
s   9 1.0 
    45840.0000000000        -0.1280239503
     6868.0000000000        -0.2451024263
     1563.0000000000        -0.4185277093
      442.4000000000        -0.6855177236
      144.3000000000        -1.0179501673
       52.1800000000        -1.4038213591
       20.3400000000        -1.5671074566
        8.3810000000        -1.4767088923
        3.5290000000        -0.6121674414
s   1 1.0 
        1.0540000000         0.7413794612
s   1 1.0 
        0.4118000000         0.3663741711
s   1 1.0 
        0.1552000000         0.1762296099
p   3 1.0 
       49.3300000000         5.8003427037
       11.3700000000         6.3555590049
        3.4350000000         5.5883087071
p   1 1.0 
        1.1820000000         1.7567579743
p   1 1.0 
        0.4173000000         0.4780799923
p   1 1.0 
        0.1428000000         0.1251268026
d   1 1.0 
        2.8370000000        17.6796605055
d   1 1.0 
        0.9680000000         2.6930967689
d   1 1.0 
        0.3350000000         0.4205314648
f   1 1.0 
        2.0270000000        27.9525230183
f   1 1.0 
        0.6850000000         2.4339063574
g   1 1.0 
        1.4270000000        17.5039221697

[5D]
[9G]
[MO]
 Sym=     1a
 Ene= -1.57486582247639E+01
 Spin= Alpha
 Occup= 2.000000
  1      -0.500731012965
  2      -0.000421836959
  3      -0.008526872329
  4       0.001868526739
  5      -0.000731938168
  6       0.001109699823
  7      -0.000000170851
  8       0.001104866958
  9      -0.000284403396
 10      -0.000000160982
 11      -0.000278737673
 12       0.000197030133
 13       0.000000073316
 14       0.000200033754
 15       0.000236003745
 16       0.000000859818
 17       0.000221012807
 18      -0.000019132852
 19      -0.000067234378
 20       0.000000298786
 21      -0.000033784005
 22      -0.000000216035
 23       0.000018772012
 24       0.000080206353
 25       0.000001011480
 26       0.000042566472
 27      -0.000001050027
 28      -0.000071678262
 29      -0.000240167077
 30       0.000002438162
 31      -0.000118956088
 32      -0.000002240521
 33       0.000004592737
 34      -0.000019024519
 35      -0.000001437166
 36      -0.000019424658
 37       0.000002122840
 38       0.000007791512
 39       0.000002196450
 40      -0.000000008336
 41       0.000011512569
 42      -0.000036285954
 43       0.000008753433
 44       0.000041928833
 45      -0.000002819532
 46       0.000040566433
 47      -0.000007039568
 48       0.000001888655
 49       0.000018068554
 50       0.000011282947
 51      -0.000007078741
 52      -0.000009125164
 53       0.000002673823
 54      -0.000003411654
 55      -0.000014269779
 56      -0.475142469006
 57      -0.000403973137
 58      -0.008091014478
 59       0.001778489653
 60      -0.000561902900
 61      -0.001206669482
 62       0.000699541883
 63       0.000511357030
 64       0.000298279498
 65      -0.000174698598
 66      -0.000125743560
 67      -0.000188461279
 68       0.000112563709
 69       0.000083132819
 70      -0.000214837633
 71       0.000131393491
 72       0.000089405827
 73       0.000025140089
 74       0.000037190661
 75      -0.000021177454
 76      -0.000029649970
 77       0.000050133662
 78      -0.000033967051
 79      -0.000045454910
 80       0.000026638897
 81       0.000039011380
 82      -0.000062984327
 83       0.000080559061
 84       0.000124315251
 85      -0.000070779191
 86      -0.000093970948
 87       0.000166562512
 88       0.000010624627
 89      -0.000006490039
 90       0.000001474502
 91      -0.000009405743
 92       0.000014054993
 93       0.000000724783
 94       0.000017645908
 95      -0.000021323608
 96      -0.000033972432
 97      -0.000042949785
 98      -0.000026739728
 99      -0.000001312863
100       0.000019627691
101      -0.000011394179
102       0.000005913990
103       0.000011701904
104       0.000008031603
105      -0.000011490970
106      -0.000005220851
107       0.000007213422
108      -0.000015674346
109       0.000010976645
110       0.000001623507
111      -0.516358232713
112      -0.000433630603
113      -0.008797776612
114       0.001930341278
115      -0.000840797770
116       0.000547694931
117       0.000762578447
118      -0.001315982095
119      -0.000143039160
120      -0.000195779633
121       0.000339205471
122       0.000103256331
123       0.000143709566
124      -0.000251552748
125       0.000127621705
126       0.000166223904
127      -0.000292705681
128      -0.000038079067
129       0.000037081174
130       0.000052610669
131       0.000007144328
132      -0.000021837672
133       0.000040984606
134      -0.000044214424
135      -0.000060605697
136      -0.000007342751
137       0.000025180819
138      -0.000146323364
139       0.000138333637
140       0.000196029003
141       0.000026887880
142      -0.000081657868
143       0.000004247636
144      -0.000014672709
145      -0.000018879734
146      -0.000007649909
147       0.000015015075
148      -0.000002613316
149       0.000003480772
150      -0.000000391100
151      -0.000005040070
152       0.000031659509
153      -0.000036190524
154      -0.000005937797
155       0.000036078513
156       0.000037929190
157      -0.000000639128
158      -0.000014125203
159       0.000002965244
160      -0.000016698142
161       0.000012421288
162      -0.000002359816
163       0.000005036449
164       0.000004813739
165      -0.000013772408
166      -0.492938870261
167      -0.000416915716
168      -0.008397032908
169       0.001845585718
170      -0.000683464398
171      -0.000365903610
172      -0.001454231219
173      -0.000361540756
174       0.000089836300
175       0.000367091124
176       0.000093128684
177      -0.000060571168
178      -0.000251046708
179      -0.000064033562
180      -0.000063865677
181      -0.000290881524
182      -0.000079250013
183       0.000033123044
184      -0.000007491121
185      -0.000028841676
186       0.000055105620
187      -0.000030743739
188      -0.000042673237
189       0.000008952231
190       0.000035324077
191      -0.000065303294
192       0.000036989546
193       0.000112469993
194      -0.000026048168
195      -0.000102823400
196       0.000195452288
197      -0.000105103315
198      -0.000006918220
199      -0.000004971775
200      -0.000011910933
201      -0.000011429312
202       0.000007074160
203       0.000013739155
204       0.000015268937
205       0.000041534770
206      -0.000040343041
207       0.000002820260
208      -0.000018978882
209       0.000023697209
210      -0.000022580217
211      -0.000006308434
212       0.000011605330
213      -0.000005945226
214       0.000002807550
215      -0.000000879648
216      -0.000012849815
217       0.000016868623
218       0.000011989696
219      -0.000008165031
220       0.000002154340
 Sym=     1a
 Ene= -1.57477359426225E+01
 Spin= Alpha
 Occup= 2.000000
  1       0.312122178227
  2       0.000205289068
  3       0.005201836977
  4      -0.000897519268
  5       0.001922510687
  6      -0.000692695999
  7      -0.000033819453
  8      -0.000634636399
  9       0.000205897698
 10      -0.000059178565
 11       0.000294324149
 12      -0.000351209181
 13       0.000083023937
 14      -0.000473316083
 15      -0.000248348341
 16       0.000230339216
 17      -0.000603618782
 18      -0.000015430830
 19       0.000016851265
 20       0.000015989116
 21       0.000016083864
 22       0.000011409314
 23       0.000026173434
 24       0.000042944277
 25      -0.000002788551
 26      -0.000009683295
 27      -0.000029971637
 28       0.000078059622
 29       0.000247479928
 30      -0.000001851806
 31       0.000099620533
 32      -0.000026144427
 33      -0.000019984840
 34      -0.000003170787
 35       0.000018129127
 36       0.000009938230
 37       0.000008465252
 38      -0.000003052723
 39      -0.000006159223
 40       0.000025619846
 41      -0.000052530889
 42      -0.000016250682
 43      -0.000036461394
 44      -0.000001511001
 45      -0.000002996921
 46      -0.000028791060
 47       0.000003494407
 48       0.000010925890
 49      -0.000006813741
 50       0.000004991342
 51      -0.000006928219
 52       0.000007712091
 53       0.000004246169
 54       0.000000801071
 55       0.000013587955
 56       0.143324808030
 57       0.000095124937
 58       0.002389444558
 59      -0.000417545752
 60       0.000853527853
 61       0.000343916752
 62      -0.000240267703
 63      -0.000112277697
 64      -0.000141466282
 65       0.000008225660
 66       0.000121890497
 67       0.000225959347
 68      -0.000025455550
 69      -0.000185772299
 70       0.000261668352
 71       0.000131270792
 72      -0.000343262524
 73      -0.000016847417
 74       0.000016353867
 75       0.000004055138
 76      -0.000008844358
 77      -0.000020188824
 78       0.000003851970
 79      -0.000020543658
 80       0.000029686902
 81       0.000026315333
 82       0.000017092161
 83      -0.000030517194
 84      -0.000078183760
 85       0.000054948139
 86       0.000065960556
 87      -0.000056085169
 88       0.000000721528
 89       0.000019299836
 90      -0.000002443625
 91      -0.000017562925
 92      -0.000004588599
 93      -0.000010159569
 94      -0.000004955040
 95       0.000023816180
 96      -0.000012038186
 97      -0.000011591694
 98       0.000012663055
 99       0.000032451022
100      -0.000024471523
101       0.000006765881
102      -0.000005841840
103       0.000004169136
104       0.000000278261
105       0.000011339495
106      -0.000011558174
107       0.000006182459
108      -0.000000995624
109      -0.000012111378
110       0.000004538010
111      -0.833042434738
112      -0.000540425975
113      -0.013882795559
114       0.002397730693
115      -0.005306671277
116       0.000857456041
117       0.001174560686
118      -0.002045324010
119      -0.000320228888
120      -0.000468785009
121       0.000774687479
122       0.000538416702
123       0.000779497338
124      -0.001294067033
125       0.000531917937
126       0.000842422856
127      -0.001325968511
128      -0.000023600348
129       0.000023610203
130       0.000026730304
131       0.000000115094
132      -0.000010968054
133      -0.000056361704
134       0.000052025485
135       0.000082342836
136       0.000014289293
137      -0.000027336956
138      -0.000363871627
139       0.000361685064
140       0.000505885844
141       0.000071407521
142      -0.000207885053
143       0.000004475779
144      -0.000019715915
145      -0.000010999999
146      -0.000012403323
147       0.000013082058
148       0.000008721244
149       0.000013648929
150      -0.000014059802
151       0.000078882714
152       0.000126489603
153       0.000013856404
154      -0.000083523513
155       0.000033953698
156       0.000008400147
157       0.000004947519
158      -0.000012181816
159       0.000011354959
160      -0.000013686980
161       0.000002150762
162       0.000004318928
163       0.000006748337
164       0.000003460068
165      -0.000017849669
166       0.417421691439
167       0.000273158808
168       0.006957644324
169      -0.001213269546
170       0.002579660186
171       0.000290392365
172       0.001175917107
173       0.000340514167
174      -0.000124803538
175      -0.000466471992
176      -0.000030134382
177       0.000202166694
178       0.000761832632
179       0.000066145833
180       0.000239229392
181       0.000828744454
182      -0.000120678222
183      -0.000002543876
184       0.000010287782
185       0.000032608051
186      -0.000010807986
187       0.000002651774
188      -0.000048981148
189       0.000012184380
190      -0.000006564289
191      -0.000035813649
192       0.000017886572
193      -0.000180379338
194       0.000038795935
195       0.000115876101
196      -0.000267820623
197       0.000144281149
198       0.000012588966
199       0.000002906858
200      -0.000000072838
201       0.000019120859
202      -0.000018607257
203       0.000006383023
204      -0.000001584012
205      -0.000043991835
206       0.000000495119
207      -0.000062631802
208      -0.000014547843
209       0.000025845003
210       0.000030038691
211       0.000035897920
212      -0.000000076626
213       0.000008757454
214       0.000001151206
215       0.000014448397
216      -0.000002058620
217      -0.000011000163
218      -0.000011510072
219       0.000000911480
220       0.000007669466
 Sym=     1a
 Ene= -1.57477223965349E+01
 Spin= Alpha
 Occup= 2.000000
  1      -0.794078026792
  2      -0.000512588344
  3      -0.013222149771
  4       0.002282192197
  5      -0.005026010283
  6       0.001689152888
  7      -0.000017210015
  8       0.001689652885
  9      -0.000666035200
 10      -0.000030745492
 11      -0.000629966122
 12       0.001107608793
 13       0.000044096161
 14       0.001050315799
 15       0.001166322105
 16       0.000118291475
 17       0.001057719327
 18      -0.000016323022
 19      -0.000035555848
 20       0.000008054564
 21      -0.000016490090
 22       0.000006181812
 23      -0.000028444683
 24      -0.000087637944
 25      -0.000005072141
 26      -0.000053612906
 27      -0.000012043816
 28      -0.000166788294
 29      -0.000617920174
 30      -0.000006239490
 31      -0.000325089091
 32      -0.000009742848
 33      -0.000000867201
 34      -0.000016460342
 35      -0.000005326439
 36      -0.000016633633
 37       0.000018419361
 38       0.000008799898
 39       0.000008867072
 40      -0.000022632638
 41       0.000100410159
 42      -0.000017493461
 43       0.000116306541
 44       0.000019129498
 45      -0.000056634356
 46       0.000009575688
 47       0.000000989545
 48       0.000002634399
 49       0.000020183230
 50       0.000002370472
 51      -0.000013508877
 52       0.000002238639
 53       0.000006652460
 54      -0.000000709185
 55      -0.000014504324
 56       0.267171931466
 57       0.000172871313
 58       0.004448916573
 59      -0.000779761563
 60       0.001647998714
 61       0.000625557992
 62      -0.000403610513
 63      -0.000308886521
 64      -0.000302799851
 65       0.000099583301
 66       0.000042230103
 67       0.000486210674
 68      -0.000170886887
 69      -0.000078293229
 70       0.000620119322
 71      -0.000072276552
 72       0.000053861525
 73       0.000003416882
 74      -0.000019984336
 75       0.000017743291
 76      -0.000016986415
 77      -0.000011613825
 78      -0.000041487422
 79      -0.000014252606
 80      -0.000011490365
 81       0.000026439941
 82      -0.000006539204
 83      -0.000107162424
 84      -0.000105818033
 85       0.000046264908
 86       0.000113488408
 87      -0.000147371803
 88      -0.000012773746
 89      -0.000003107001
 90       0.000002734887
 91       0.000005457773
 92      -0.000014872355
 93      -0.000017825853
 94       0.000007462616
 95       0.000043540520
 96      -0.000025928365
 97       0.000030479893
 98      -0.000023935218
 99       0.000018653357
100      -0.000006665194
101       0.000017023935
102       0.000007331444
103      -0.000004286083
104      -0.000006863243
105      -0.000003843625
106       0.000008048864
107       0.000007940123
108       0.000008153272
109      -0.000009183339
110       0.000013161393
111       0.015472231275
112       0.000011659475
113       0.000258766926
114      -0.000039917270
115       0.000076371969
116      -0.000058380625
117      -0.000039140463
118       0.000009391679
119      -0.000069089484
120      -0.000024304399
121      -0.000060575567
122       0.000096343167
123       0.000033163531
124       0.000088293390
125       0.000282329720
126       0.000107899648
127       0.000208661075
128      -0.000021987421
129      -0.000017621014
130       0.000000011742
131      -0.000000490046
132       0.000013832260
133       0.000027758287
134       0.000003613138
135       0.000008203059
136      -0.000024981747
137      -0.000026451220
138       0.000027707729
139      -0.000003234237
140       0.000000122299
141      -0.000020993990
142      -0.000019996880
143       0.000019708541
144       0.000012044011
145      -0.000014216470
146      -0.000000485671
147      -0.000011141210
148       0.000006595927
149       0.000002538859
150       0.000006327690
151      -0.000027113808
152       0.000012864018
153      -0.000014815818
154      -0.000010082731
155      -0.000004058127
156      -0.000027183470
157       0.000010902376
158      -0.000004513254
159      -0.000009883132
160      -0.000007355362
161      -0.000004106719
162       0.000009369653
163      -0.000004582033
164      -0.000001951786
165       0.000004879241
166       0.532898810244
167       0.000346226768
168       0.008877084797
169      -0.001538338957
170       0.003330260918
171       0.000345346944
172       0.001526059046
173       0.000356770381
174      -0.000205884881
175      -0.000551780188
176      -0.000180979238
177       0.000327877327
178       0.000917789356
179       0.000291657146
180       0.000483639173
181       0.000889724624
182       0.000384638309
183      -0.000018019379
184      -0.000008631168
185       0.000002539593
186      -0.000032288784
187      -0.000004832466
188      -0.000023767336
189      -0.000003865924
190       0.000044181841
191      -0.000031735951
192       0.000049826697
193      -0.000197625393
194       0.000040744643
195       0.000199517851
196      -0.000326330267
197       0.000207258238
198      -0.000005568608
199       0.000011967545
200       0.000013600146
201       0.000012866303
202       0.000008828867
203       0.000003563731
204      -0.000018603296
205      -0.000050054857
206      -0.000013495291
207      -0.000043079194
208      -0.000050443237
209      -0.000005483954
210       0.000067286663
211       0.000042463077
212      -0.000006602705
213       0.000001775085
214      -0.000012293340
215      -0.000004353291
216       0.000009073480
217      -0.000001984844
218      -0.000009297676
219       0.000012550165
220       0.000011108411
 Sym=     1a
 Ene= -1.57476949906000E+01
 Spin= Alpha
 Occup= 2.000000
  1       0.086237201937
  2       0.000052760830
  3       0.001432679339
  4      -0.000249358392
  5       0.000584420108
  6      -0.000159186484
  7      -0.000036791333
  8      -0.000208658362
  9       0.000122776014
 10      -0.000069381488
 11       0.000025110686
 12      -0.000198269570
 13       0.000102552432
 14      -0.000053086186
 15      -0.000309711300
 16       0.000259607083
 17       0.000051784272
 18       0.000018242861
 19       0.000005242646
 20       0.000012999717
 21      -0.000012424823
 22       0.000018686842
 23      -0.000027449458
 24       0.000020487029
 25      -0.000032077934
 26       0.000004644236
 27      -0.000006279697
 28      -0.000011278501
 29       0.000076212950
 30      -0.000028545239
 31       0.000042769865
 32      -0.000013993958
 33       0.000003432873
 34       0.000015080795
 35      -0.000000079804
 36      -0.000004273254
 37       0.000012270917
 38       0.000011390406
 39      -0.000015658758
 40       0.000029645382
 41      -0.000013086307
 42       0.000026698483
 43      -0.000011747649
 44       0.000007398471
 45      -0.000008953684
 46       0.000009681211
 47      -0.000000329526
 48      -0.000014095358
 49      -0.000004355239
 50      -0.000000478752
 51      -0.000004835370
 52      -0.000002318154
 53       0.000014319258
 54      -0.000007275713
 55       0.000005361564
 56      -0.817600333986
 57      -0.000528135142
 58      -0.013605788637
 59       0.002347235219
 60      -0.005093407347
 61      -0.002005981903
 62       0.001144015664
 63       0.000839408360
 64       0.000745442746
 65      -0.000468397251
 66      -0.000329329071
 67      -0.001237780472
 68       0.000769876473
 69       0.000542603258
 70      -0.001228230382
 71       0.000850644495
 72       0.000580014031
 73       0.000015046268
 74       0.000021297479
 75      -0.000007777501
 76      -0.000026460208
 77       0.000026042697
 78       0.000020979525
 79       0.000049101179
 80      -0.000032782055
 81      -0.000027663443
 82       0.000078423371
 83       0.000232160224
 84       0.000351830573
 85      -0.000208327222
 86      -0.000270523840
 87       0.000495130903
 88       0.000001413332
 89      -0.000014900565
 90      -0.000009804338
 91      -0.000018671822
 92       0.000009630983
 93      -0.000000983698
 94       0.000018821608
 95      -0.000069211350
 96       0.000012910313
 97      -0.000035019560
 98       0.000034778513
 99      -0.000083574260
100       0.000003567842
101      -0.000120672433
102       0.000009169930
103       0.000004900260
104       0.000015570437
105      -0.000013896863
106      -0.000008760895
107       0.000013668696
108      -0.000006711988
109       0.000005028876
110      -0.000005179079
111       0.159118967450
112       0.000100862667
113       0.002647166189
114      -0.000449823870
115       0.001051034876
116      -0.000135814821
117      -0.000268075566
118       0.000376147314
119       0.000111889896
120       0.000011217533
121      -0.000176413770
122      -0.000178882291
123      -0.000038696532
124       0.000295025607
125      -0.000296511703
126       0.000138291653
127       0.000358103239
128      -0.000005964447
129       0.000013281702
130      -0.000019587361
131      -0.000019603243
132       0.000007284203
133       0.000034037347
134      -0.000024087953
135       0.000014780179
136       0.000010502336
137       0.000025385241
138       0.000090730857
139      -0.000083568033
140      -0.000071330785
141       0.000001859479
142       0.000053679170
143       0.000000731653
144      -0.000011838921
145       0.000001948484
146       0.000022683225
147      -0.000007347878
148       0.000011908244
149       0.000001587669
150       0.000029937834
151      -0.000012380418
152      -0.000005456410
153       0.000000136265
154       0.000032086935
155      -0.000027674525
156       0.000008249652
157       0.000003280854
158      -0.000007457147
159      -0.000004014596
160       0.000014889053
161      -0.000000535110
162       0.000004591014
163       0.000011730669
164      -0.000005348193
165       0.000000491228
166       0.533795835889
167       0.000342574188
168       0.008883116857
169      -0.001522316658
170       0.003410755995
171       0.000417433581
172       0.001507268301
173       0.000363186637
174      -0.000076815104
175      -0.000594131965
176      -0.000171292248
177       0.000144223379
178       0.000994658067
179       0.000281615354
180      -0.000012745522
181       0.001047091156
182       0.000347024676
183      -0.000012442712
184       0.000007712825
185       0.000000279675
186      -0.000012739953
187       0.000031968741
188      -0.000009965733
189       0.000011863158
190       0.000033129658
191      -0.000074585980
192       0.000005036668
193      -0.000188603400
194       0.000049592336
195       0.000192000560
196      -0.000366817878
197       0.000163778921
198      -0.000009389395
199       0.000010430514
200       0.000004505119
201       0.000000545553
202      -0.000015931082
203      -0.000021213329
204      -0.000004435966
205      -0.000035133362
206       0.000010676482
207      -0.000029237149
208      -0.000030925847
209       0.000025149024
210       0.000058886900
211       0.000080656669
212      -0.000010074573
213       0.000000441625
214      -0.000009845750
215       0.000005361642
216       0.000012690541
217      -0.000014123471
218       0.000002830638
219      -0.000006487339
220      -0.000003193868
 Sym=     1a
 Ene= -1.65179309500088E+00
 Spin= Alpha
 Occup= 2.000000
  1      -0.005385612217
  2       0.141090190078
  3       0.107955498125
  4       0.198231124747
  5       0.042016177392
  6      -0.021868259143
  7       0.000003609429
  8      -0.022024211270
  9      -0.042563363388
 10       0.000007092761
 11      -0.042904728807
 12      -0.049530386128
 13       0.000005296120
 14      -0.049762994938
 15      -0.007788406862
 16       0.000000641240
 17      -0.007773058957
 18       0.000600129802
 19       0.002003396354
 20      -0.000013317732
 21       0.000988983320
 22       0.000012082298
 23       0.002984134757
 24       0.010032261721
 25      -0.000070986452
 26       0.004963872019
 27       0.000066968653
 28       0.003588116179
 29       0.012410245833
 30      -0.000055212113
 31       0.006201022373
 32       0.000052394762
 33       0.000037837385
 34      -0.000204483001
 35       0.000094000303
 36      -0.000194977817
 37      -0.000092930641
 38       0.000074453954
 39      -0.000080050152
 40       0.000659837197