[Molden Format]
[Title]
 Molden file created by orca_2mkl for BaseName=./N4

[Atoms] AU
N    1   7         -1.2141710420         0.0000000000         1.1929116530 
N    2   7          1.3902700099        -0.8023365584         0.5821231050 
N    3   7         -0.5808226486        -0.8023365584        -1.3773975410 
N    4   7          0.4047236807         1.6046731167        -0.3976372170 
[GTO]
  1 0
s   8 1.0 
    90726.8892100000         0.2644615843
    13590.5288010000         0.4949373694
     3092.9883781000         0.8551699161
      875.9987636200         1.3898736510
      285.7446998200         2.1216984479
      103.1191341700         2.9797034650
       40.1285567770         3.6227997909
       16.5280957040         3.4518402365
s   2 1.0 
       69.3909609830         1.6219974198
       20.4282005960         6.3380762249
s   1 1.0 
        7.1292587972         3.1095201639
s   1 1.0 
        3.1324304893         1.6781128930
s   1 1.0 
        0.9875577872         0.7060443478
s   1 1.0 
        0.3876572131         0.3501434400
s   1 1.0 
        0.1490988307         0.1710077411
p   5 1.0 
      150.0574267000        -1.8341596231
       35.4915994830        -2.4061666955
       11.2478642230        -2.6529700970
        4.0900305195        -2.4826646205
        1.6220573146        -1.8181284959
p   1 1.0 
        0.6644226153         0.8550580417
p   1 1.0 
        0.2709977007         0.2787064987
p   1 1.0 
        0.1068874998         0.0871161625
d   1 1.0 
        2.8370000000        17.6796605055
d   1 1.0 
        0.9680000000         2.6930967689
d   1 1.0 
        0.3350000000         0.4205314648
f   1 1.0 
        2.0270000000        27.9525230183
f   1 1.0 
        0.6850000000         2.4339063574
g   1 1.0 
        1.4270000000        17.5039221697

  2 0
s   8 1.0 
    90726.8892100000         0.2644615843
    13590.5288010000         0.4949373694
     3092.9883781000         0.8551699161
      875.9987636200         1.3898736510
      285.7446998200         2.1216984479
      103.1191341700         2.9797034650
       40.1285567770         3.6227997909
       16.5280957040         3.4518402365
s   2 1.0 
       69.3909609830         1.6219974198
       20.4282005960         6.3380762249
s   1 1.0 
        7.1292587972         3.1095201639
s   1 1.0 
        3.1324304893         1.6781128930
s   1 1.0 
        0.9875577872         0.7060443478
s   1 1.0 
        0.3876572131         0.3501434400
s   1 1.0 
        0.1490988307         0.1710077411
p   5 1.0 
      150.0574267000        -1.8341596231
       35.4915994830        -2.4061666955
       11.2478642230        -2.6529700970
        4.0900305195        -2.4826646205
        1.6220573146        -1.8181284959
p   1 1.0 
        0.6644226153         0.8550580417
p   1 1.0 
        0.2709977007         0.2787064987
p   1 1.0 
        0.1068874998         0.0871161625
d   1 1.0 
        2.8370000000        17.6796605055
d   1 1.0 
        0.9680000000         2.6930967689
d   1 1.0 
        0.3350000000         0.4205314648
f   1 1.0 
        2.0270000000        27.9525230183
f   1 1.0 
        0.6850000000         2.4339063574
g   1 1.0 
        1.4270000000        17.5039221697

  3 0
s   8 1.0 
    90726.8892100000         0.2644615843
    13590.5288010000         0.4949373694
     3092.9883781000         0.8551699161
      875.9987636200         1.3898736510
      285.7446998200         2.1216984479
      103.1191341700         2.9797034650
       40.1285567770         3.6227997909
       16.5280957040         3.4518402365
s   2 1.0 
       69.3909609830         1.6219974198
       20.4282005960         6.3380762249
s   1 1.0 
        7.1292587972         3.1095201639
s   1 1.0 
        3.1324304893         1.6781128930
s   1 1.0 
        0.9875577872         0.7060443478
s   1 1.0 
        0.3876572131         0.3501434400
s   1 1.0 
        0.1490988307         0.1710077411
p   5 1.0 
      150.0574267000        -1.8341596231
       35.4915994830        -2.4061666955
       11.2478642230        -2.6529700970
        4.0900305195        -2.4826646205
        1.6220573146        -1.8181284959
p   1 1.0 
        0.6644226153         0.8550580417
p   1 1.0 
        0.2709977007         0.2787064987
p   1 1.0 
        0.1068874998         0.0871161625
d   1 1.0 
        2.8370000000        17.6796605055
d   1 1.0 
        0.9680000000         2.6930967689
d   1 1.0 
        0.3350000000         0.4205314648
f   1 1.0 
        2.0270000000        27.9525230183
f   1 1.0 
        0.6850000000         2.4339063574
g   1 1.0 
        1.4270000000        17.5039221697

  4 0
s   8 1.0 
    90726.8892100000         0.2644615843
    13590.5288010000         0.4949373694
     3092.9883781000         0.8551699161
      875.9987636200         1.3898736510
      285.7446998200         2.1216984479
      103.1191341700         2.9797034650
       40.1285567770         3.6227997909
       16.5280957040         3.4518402365
s   2 1.0 
       69.3909609830         1.6219974198
       20.4282005960         6.3380762249
s   1 1.0 
        7.1292587972         3.1095201639
s   1 1.0 
        3.1324304893         1.6781128930
s   1 1.0 
        0.9875577872         0.7060443478
s   1 1.0 
        0.3876572131         0.3501434400
s   1 1.0 
        0.1490988307         0.1710077411
p   5 1.0 
      150.0574267000        -1.8341596231
       35.4915994830        -2.4061666955
       11.2478642230        -2.6529700970
        4.0900305195        -2.4826646205
        1.6220573146        -1.8181284959
p   1 1.0 
        0.6644226153         0.8550580417
p   1 1.0 
        0.2709977007         0.2787064987
p   1 1.0 
        0.1068874998         0.0871161625
d   1 1.0 
        2.8370000000        17.6796605055
d   1 1.0 
        0.9680000000         2.6930967689
d   1 1.0 
        0.3350000000         0.4205314648
f   1 1.0 
        2.0270000000        27.9525230183
f   1 1.0 
        0.6850000000         2.4339063574
g   1 1.0 
        1.4270000000        17.5039221697

[5D]
[9G]
[MO]
 Sym=     1a
 Ene= -1.57488806734734E+01
 Spin= Alpha
 Occup= 2.000000
  1      -0.279231124276
  2       0.000209713866
  3      -0.185826279120
  4      -0.084682304511
  5      -0.005615584599
  6       0.001851289652
  7      -0.000903457676
  8       0.001329373311
  9       0.000000087254
 10      -0.001319527610
 11       0.001174358163
 12       0.000001706281
 13      -0.001127981685
 14      -0.000893543560
 15       0.000005069195
 16       0.000941616412
 17       0.000007919501
 18       0.000000263275
 19      -0.000005348686
 20      -0.000015490975
 21       0.000064973341
 22       0.000000691884
 23      -0.000034285562
 24       0.000000262853
 25       0.000001433597
 26      -0.000080360628
 27      -0.000006612248
 28       0.000052287272
 29      -0.000004335063
 30      -0.000128168131
 31       0.000382635336
 32      -0.000010980674
 33      -0.000182302495
 34      -0.000006379636
 35       0.000005553015
 36       0.000010578437
 37       0.000002864583
 38      -0.000014207000
 39       0.000001379022
 40      -0.000006553380
 41      -0.000000164866
 42       0.000001119450
 43      -0.000028066199
 44       0.000059175699
 45       0.000020367209
 46       0.000064644996
 47       0.000006373969
 48      -0.000062782463
 49      -0.000008779505
 50      -0.000001167004
 51      -0.000018091369
 52       0.000013329945
 53      -0.000006019870
 54       0.000011293141
 55      -0.000003066539
 56      -0.000004307874
 57      -0.000014008167
 58      -0.265004004249
 59       0.000195682064
 60      -0.176348285134
 61      -0.080396424136
 62      -0.005210526173
 63       0.001587603578
 64      -0.001038749654
 65      -0.001433570496
 66       0.000832467101
 67      -0.000606665470
 68      -0.001238609511
 69       0.000721870326
 70      -0.000511937136
 71       0.001174471703
 72      -0.000652558906
 73       0.000503989138
 74       0.000008846747
 75      -0.000003573886
 76       0.000003861286
 77       0.000022487635
 78      -0.000030895526
 79       0.000018942384
 80      -0.000024112619
 81       0.000044311961
 82      -0.000031028475
 83       0.000027541186
 84      -0.000021592722
 85       0.000028218241
 86      -0.000053555842
 87       0.000155931328
 88      -0.000248511065
 89       0.000130468809
 90      -0.000200712458
 91       0.000318269832
 92       0.000007064734
 93       0.000005731801
 94      -0.000001672679
 95      -0.000005982531
 96       0.000009667770
 97       0.000000800436
 98      -0.000014623459
 99      -0.000046979575
100       0.000049423686
101       0.000074047580
102      -0.000029116173
103      -0.000014775086
104      -0.000041631154
105       0.000042276176
106       0.000006856181
107      -0.000014442031
108      -0.000007605906
109      -0.000013592668
110      -0.000005882786
111      -0.000006498393
112       0.000018582909
113       0.000014242596
114       0.000000608323
115      -0.288445473086
116       0.000219032795
117      -0.191964244891
118      -0.087458404626
119      -0.005881253951
120       0.002028782804
121      -0.000820721654
122       0.000660553356
123       0.000916759816
124       0.001583076287
125       0.000591069832
126       0.000798739496
127       0.001377767034
128      -0.000388859098
129      -0.000585276783
130      -0.000984547735
131       0.000008116526
132       0.000009115647
133       0.000016818363
134      -0.000039282271
135      -0.000040261376
136      -0.000053381471
137       0.000006310408
138      -0.000022537033
139       0.000044415640
140       0.000061076659
141       0.000065619081
142      -0.000005054112
143       0.000030505681
144      -0.000200397847
145      -0.000180460353
146      -0.000280108723
147       0.000044596249
148      -0.000116348760
149       0.000001199445
150       0.000010782603
151       0.000010487022
152      -0.000005053062
153       0.000010392469
154       0.000001724041
155      -0.000002362580
156       0.000002401551
157       0.000013704099
158      -0.000046496698
159      -0.000050297668
160      -0.000008630496
161      -0.000057164467
162      -0.000058618653
163      -0.000001776076
164       0.000015272077
165       0.000000406435
166      -0.000014485649
167       0.000014487723
168       0.000002789776
169      -0.000005446820
170       0.000004276871
171      -0.000012609259
172      -0.275102188163
173       0.000205817775
174      -0.183075330416
175      -0.083438545220
176      -0.005499088049
177       0.001775248031
178      -0.000949510010
179      -0.000435061527
180      -0.001737603351
181       0.000433548180
182      -0.000367973633
183      -0.001506553294
184       0.000382999199
185       0.000355580708
186       0.001261330547
187      -0.000285335462
188       0.000001298785
189      -0.000002363923
190       0.000001983116
191       0.000030750537
192       0.000006703859
193       0.000029795457
194       0.000052216738
195      -0.000025571014
196      -0.000038470837
197      -0.000007249982
198      -0.000042582533
199      -0.000062834032
200       0.000023069101
201       0.000193718659
202       0.000046835955
203       0.000152132091
204       0.000325352570
205      -0.000204081757
206      -0.000004726347
207       0.000003383058
208       0.000008132619
209      -0.000007854594
210       0.000004914885
211      -0.000009749318
212      -0.000010696000
213       0.000064453982
214       0.000059675368
215      -0.000014554150
216      -0.000034043061
217       0.000032791638
218       0.000056630977
219       0.000014243141
220       0.000011903770
221       0.000006396249
222       0.000001186161
223      -0.000000593973
224      -0.000012906492
225      -0.000017820324
226      -0.000015653186
227      -0.000010717105
228       0.000000713095
 Sym=     1a
 Ene= -1.57479712552655E+01
 Spin= Alpha
 Occup= 2.000000
  1       0.170096719021
  2      -0.000157203670
  3       0.113321089389
  4       0.051257117080
  5       0.004806882258
  6      -0.003352482163
  7      -0.002006976467
  8      -0.000869390342
  9       0.000022909175
 10       0.000901380120
 11      -0.000739834728
 12       0.000288907338
 13       0.001195490298
 14      -0.000414003032
 15       0.001111379388
 16       0.002187161770
 17      -0.000158712643
 18       0.000068570499
 19       0.000264560136
 20       0.000109491934
 21      -0.000081998359
 22       0.000072432395
 23       0.000024341881
 24      -0.000032272938
 25      -0.000414440860
 26       0.000163158506
 27      -0.000314580157
 28      -0.000027655056
 29       0.000123001683
 30      -0.000990177707
 31       0.000417885523
 32      -0.000731810405
 33      -0.000046443977
 34       0.000318758118
 35      -0.000011145674
 36       0.000014174021
 37      -0.000012356576
 38      -0.000001842682
 39       0.000006544999
 40       0.000000617379
 41       0.000009092704
 42       0.000386304574
 43      -0.000262128409
 44       0.000351743123
 45      -0.000004182724
 46      -0.000251136932
 47       0.000029894035
 48      -0.000063767935
 49      -0.000063304545
 50       0.000081145634
 51      -0.000078521022
 52       0.000007521315
 53       0.000068489518
 54      -0.000006487044
 55       0.000028435269
 56       0.000008040602
 57       0.000000186615
 58       0.082272182863
 59      -0.000075486694
 60       0.054809357441
 61       0.024797466828
 62       0.002290190341
 63      -0.001549750854
 64      -0.000900131216
 65       0.000492749646
 66      -0.000259058602
 67       0.000229463012
 68       0.000580159749
 69       0.000007532612
 70       0.000517205287
 71       0.000883907727
 72       0.000821569371
 73       0.001429681221
 74       0.000123952111
 75       0.000012421450
 76       0.000122636662
 77       0.000039164150
 78       0.000106571036
 79       0.000008644484
 80       0.000061880103
 81       0.000013372875
 82      -0.000197424309
 83      -0.000403257449
 84      -0.000082742140
 85      -0.000217307994
 86      -0.000108694569
 87      -0.000466522441
 88      -0.000954779701
 89      -0.000160116836
 90      -0.000531691577
 91      -0.000278009279
 92       0.000005935616
 93      -0.000015425980
 94       0.000003743381
 95      -0.000015446151
 96       0.000002438691
 97       0.000012261151
 98       0.000001216241
 99      -0.000062376615
100       0.000386419571
101      -0.000063666435
102       0.000470153029
103       0.000033439519
104      -0.000208586815
105      -0.000014497140
106       0.000058766973
107      -0.000018065994
108       0.000018396905
109      -0.000088125355
110       0.000010344589
111       0.000099717645
112      -0.000025824184
113       0.000018997026
114      -0.000008201126
115      -0.464834027410
116       0.000435351470
117      -0.309694891555
118      -0.140029736824
119      -0.013286801319
120       0.009285251212
121       0.005686463468
122       0.001160776012
123       0.001625359564
124       0.002795082394
125       0.001212978014
126       0.001825810894
127       0.003007587874
128       0.001584755020
129       0.002753575982
130       0.004177566497
131       0.000276827444
132       0.000414139028
133       0.000677166416
134      -0.000140840828
135      -0.000129215164
136      -0.000209624276
137       0.000042142760
138      -0.000090236369
139       0.000313245500
140       0.000271363025
141       0.000498934135
142      -0.000125117177
143       0.000224593971
144       0.000817078367
145       0.000708738803
146       0.001283102015
147      -0.000314332352
148       0.000565580523
149       0.000000037174
150      -0.000006477843
151      -0.000024193566
152      -0.000005156687
153      -0.000013494400
154      -0.000016723745
155      -0.000012375681
156       0.000015371375
157       0.000037228726
158       0.000238628382
159      -0.000035489578
160       0.000162741435
161       0.000187211345
162       0.000100887860
163       0.000003051178
164      -0.000053519385
165       0.000012964349
166       0.000041448678
167      -0.000032134107
168       0.000018241257
169       0.000020381774
170      -0.000012864825
171       0.000061121063
172       0.235472062189
173      -0.000218731343
174       0.156877751521
175       0.070951684058
176       0.006637882751
177      -0.004531752202
178      -0.002702056246
179       0.000413799519
180       0.001636081067
181      -0.000377133645
182       0.000498393829
183       0.001823293094
184      -0.000060847458
185       0.000828338037
186       0.002643840089
187       0.000865916572
188       0.000110490963
189       0.000402684456
190      -0.000001595741
191      -0.000078913978
192       0.000024977059
193       0.000032383009
194      -0.000133228785
195       0.000088565521
196       0.000196436517
197      -0.000142365770
198      -0.000239842987
199       0.000360796738
200      -0.000266967583
201       0.000512852979
202      -0.000313444543
203      -0.000560849679
204       0.000882462701
205      -0.000643782496
206       0.000001142413
207      -0.000001481647
208       0.000014294741
209       0.000010373037
210      -0.000010242130
211      -0.000016222274
212      -0.000010189680
213      -0.000227700214
214      -0.000066972525
215      -0.000175894743
216      -0.000210572703
217       0.000274843160
218       0.000332886103
219       0.000204214345
220      -0.000008789909
221       0.000029424611
222       0.000067635933
223      -0.000011080682
224       0.000013989705
225      -0.000086479872
226      -0.000024858236
227       0.000008339898
228      -0.000078291159
 Sym=     1a
 Ene= -1.57479568185404E+01
 Spin= Alpha
 Occup= 2.000000
  1       0.444517962117
  2      -0.000415665875
  3       0.296160697277
  4       0.133911829266
  5       0.012643422893
  6      -0.008719599046
  7      -0.005301203705
  8      -0.002322284789
  9      -0.000011279595
 10       0.002304257164
 11      -0.002532695272
 12      -0.000144060574
 13       0.002438000076
 14      -0.003622397334
 15      -0.000559048297
 16       0.003299154187
 17      -0.000573174957
 18      -0.000034919766
 19       0.000542623993
 20       0.000050235755
 21      -0.000252320873
 22      -0.000029189534
 23       0.000122326993
 24       0.000023620814
 25      -0.000073094756
 26       0.000594027401
 27       0.000124862891
 28      -0.000272935958
 29      -0.000094587742
 30      -0.000220392138
 31       0.001517842515
 32       0.000295221856
 33      -0.000710239958
 34      -0.000234384829
 35       0.000009042749
 36       0.000014726519
 37      -0.000006961835
 38      -0.000018962979
 39      -0.000019199168
 40      -0.000007542394
 41       0.000010169142
 42      -0.000178243064
 43      -0.000157380448
 44      -0.000022924912
 45       0.000196053217
 46       0.000242819498
 47       0.000035756903
 48      -0.000036851358
 49       0.000011995780
 50      -0.000027550871
 51      -0.000047045327
 52       0.000018738364
 53      -0.000054492257
 54       0.000031983882
 55      -0.000030031237
 56      -0.000017214990
 57      -0.000048429650
 58      -0.144692066306
 59       0.000134788620
 60      -0.096399709459
 61      -0.043595252532
 62      -0.004056185088
 63       0.002693834906
 64       0.001592455476
 65      -0.000875255274
 66       0.000482203670
 67      -0.000343615790
 68      -0.001126687115
 69       0.000320885142
 70      -0.000116060738
 71      -0.002095997825
 72      -0.000094258526
 73       0.000532736280
 74      -0.000255204064
 75       0.000064919626
 76      -0.000013075784
 77       0.000045704938
 78       0.000009303535
 79      -0.000020892688
 80      -0.000121869498
 81       0.000058969580
 82      -0.000115419330
 83      -0.000129272386
 84       0.000129243467
 85       0.000445921550
 86      -0.000139538716
 87      -0.000320381945
 88      -0.000279064299
 89       0.000314269278
 90       0.001076135733
 91      -0.000339805208
 92       0.000002911531
 93      -0.000009993893
 94       0.000008218695
 95       0.000000349658
 96       0.000007334067
 97      -0.000018121491
 98       0.000016327583
 99      -0.000211023862
100       0.000181493494
101      -0.000033294152
102       0.000012564566
103      -0.000191331414
104       0.000381442604
105      -0.000363520049
106       0.000022225153
107       0.000060274680
108      -0.000045900466
109      -0.000029144493
110       0.000026303541
111      -0.000006589592
112      -0.000025569710
113      -0.000034232442
114       0.000109136995
115      -0.013649547203
116       0.000011822051
117      -0.009091182373
118      -0.004118664746
119      -0.000385183072
120       0.000313243099
121       0.000184449468
122       0.000005545334
123       0.000036607631
124       0.000102131320
125      -0.000319458799
126      -0.000087816389
127       0.000343643098
128      -0.001357704893
129      -0.000500168883
130       0.001050525347
131      -0.000074858939
132      -0.000024278716
133       0.000077381471
134      -0.000091125011
135       0.000070009106
136      -0.000016283396
137      -0.000016125845
138       0.000042094229
139       0.000374730580
140      -0.000311053854
141       0.000068194856
142       0.000087003926
143      -0.000171231685
144       0.000897403505
145      -0.000735137809
146       0.000140891407
147       0.000172224419
148      -0.000431561983
149      -0.000016749344
150       0.000005713549
151      -0.000009255609
152       0.000001957511
153       0.000010659552
154       0.000004909793
155      -0.000001577082
156       0.000430561506
157      -0.000264704303
158       0.000323621406
159      -0.000004939506
160      -0.000234840777
161      -0.000148524632
162      -0.000070027190
163       0.000062134032
164      -0.000043878426
165       0.000110364866
166      -0.000036674677
167      -0.000039784354
168      -0.000030128316
169      -0.000015636307
170       0.000005711612
171      -0.000041909239
172      -0.297493092417
173       0.000277231574
174      -0.198201478376
175      -0.089630011943
176      -0.008425362951
177       0.005786572857
178       0.003486001425
179      -0.000539558730
180      -0.002053160572
181       0.000526889846
182      -0.000835527524
183      -0.002099791896
184       0.000724052862
185      -0.001867479288
186      -0.002583615874
187       0.001418107410
188      -0.000190107389
189      -0.000463518911
190       0.000166170492
191       0.000058218640
192       0.000074733118
193       0.000099352281
194       0.000095548329
195      -0.000130111378
196      -0.000092432257
197      -0.000294173848
198      -0.000272878719
199      -0.000147983367
200       0.000399419446
201      -0.000244465146
202      -0.000682422275
203      -0.000688362470
204      -0.000392109251
205       0.000999457954
206       0.000017433745
207       0.000006969147
208      -0.000000415853
209       0.000001691430
210      -0.000010491698
211       0.000020634707
212      -0.000001905518
213      -0.000200925193
214      -0.000104003195
215      -0.000071247314
216       0.000018880892
217       0.000392743186
218      -0.000301790577
219       0.000111252160
220      -0.000055336096
221       0.000022067305
222       0.000013948961
223       0.000004244461
224       0.000062729522
225      -0.000052515390
226       0.000068709348
227       0.000048274236
228       0.000023230023
 Sym=     1a
 Ene= -1.57479298836747E+01
 Spin= Alpha
 Occup= 2.000000
  1      -0.051827365103
  2       0.000049894087
  3      -0.034534620419
  4      -0.015601814851
  5      -0.001493793939
  6       0.000992698829
  7       0.000623815512
  8       0.000285661032
  9      -0.000023129190
 10      -0.000252606321
 11       0.000481746457
 12      -0.000300702749
 13      -0.000067132916
 14       0.001233853946
 15      -0.001189816480
 16       0.000404401840
 17       0.000118721483
 18      -0.000076033472
 19      -0.000012474596
 20       0.000047370597
 21       0.000014248556
 22      -0.000037270217
 23      -0.000074154740
 24       0.000075715321
 25      -0.000202128103
 26       0.000007400250
 27       0.000139888338
 28       0.000289311351
 29      -0.000323157169
 30      -0.000500745979
 31      -0.000030154702
 32       0.000367297147
 33       0.000694504653
 34      -0.000764521087
 35      -0.000009043052
 36       0.000010133730
 37       0.000004047922
 38       0.000009083645
 39      -0.000012943338
 40       0.000011350021
 41      -0.000014278789
 42       0.000091137638
 43      -0.000284007416
 44       0.000027484316
 45      -0.000169059657
 46       0.000297022551
 47      -0.000298864608
 48       0.000348351429
 49       0.000039067075
 50       0.000047192376
 51      -0.000036620833
 52      -0.000033809736
 53      -0.000008421494
 54       0.000064508044
 55      -0.000067979225
 56      -0.000048344711
 57       0.000073683799
 58       0.457444713031
 59      -0.000425695674
 60       0.304769808320
 61       0.137820222838
 62       0.012917767685
 63      -0.008803814961
 64      -0.005285334558
 65       0.002715167169
 66      -0.001589122000
 67       0.001157256033
 68       0.002823704734
 69      -0.001807130205
 70       0.001278218985
 71       0.003620814605
 72      -0.002755605893
 73       0.001858722477
 74       0.000623963840
 75      -0.000402460794
 76       0.000281615669
 77      -0.000098111211
 78       0.000145093756
 79      -0.000100023929
 80       0.000073616286
 81      -0.000198109299
 82       0.000240783809
 83      -0.000342464555
 84       0.000265991382
 85      -0.000100855205
 86       0.000462723623
 87       0.000586944158
 88      -0.000866791228
 89       0.000663966035
 90      -0.000271562805
 91       0.001182478433
 92       0.000018560233
 93      -0.000006108505
 94      -0.000016872689
 95       0.000004870008
 96       0.000015630255
 97       0.000000041735
 98      -0.000016967947
 99      -0.000242444219
100       0.000015444975
101       0.000148502808
102      -0.000054172289
103      -0.000224263305
104       0.000104518189
105       0.000107685972
106       0.000019544896
107      -0.000008233656
108      -0.000058948556
109      -0.000037782471
110      -0.000017284963
111      -0.000046484065
112       0.000040902695
113       0.000023476592
114       0.000024945426
115      -0.087893997752
116       0.000083246987
117      -0.058562848764
118      -0.026468342523
119      -0.002546754133
120       0.001800720526
121       0.001134062388
122       0.000238888264
123       0.000279794075
124       0.000539017305
125       0.000465309965
126      -0.000018285384
127       0.000685549554
128       0.001245489716
129      -0.000884350327
130       0.001283438771
131       0.000109658904
132      -0.000007792560
133       0.000162101018
134      -0.000057410541
135      -0.000094639814
136       0.000006777649
137      -0.000070357018
138       0.000017560219
139       0.000177074783
140       0.000347585832
141      -0.000088522740
142       0.000308618400
143      -0.000121409562
144       0.000461672200
145       0.000851203379
146      -0.000214509236
147       0.000731341936
148      -0.000246883093
149      -0.000005777256
150      -0.000014781808
151      -0.000002363551
152      -0.000019480056
153      -0.000000911305
154       0.000005804260
155       0.000002590721
156       0.000025841880
157       0.000357471640
158       0.000054636379
159       0.000447271027
160      -0.000082684819
161      -0.000277917262
162      -0.000069725413
163      -0.000045032553
164       0.000038979212
165       0.000030837703
166       0.000085113924
167       0.000007535440
168      -0.000096996103
169      -0.000015449109
170      -0.000017519522
171      -0.000035914247
172      -0.295896621175
173       0.000277338870
174      -0.197144463954
175      -0.089131515843
176      -0.008452331302
177       0.005869573796
178       0.003600656006
179      -0.000490747603
180      -0.002060112667
181       0.000520937526
182      -0.000237323768
183      -0.002269040311
184       0.000667062570
185       0.000466555177
186      -0.003340751988
187       0.001222028613
188      -0.000049448738
189      -0.000514583400
190       0.000154122306
191       0.000090237936
192      -0.000007112365
193       0.000113494556
194       0.000155068130
195       0.000004979584
196      -0.000240813302
197       0.000071550111
198      -0.000342370338
199      -0.000380378893
200      -0.000158504713
201      -0.000583414631
202       0.000153200451
203      -0.000846708010
204      -0.000999739369
205      -0.000356076166
206       0.000018637394
207       0.000009321591
208      -0.000007112269
209       0.000010112382
210       0.000007645017
211      -0.000002529759
212       0.000016464274
213      -0.000284477554
214      -0.000059796547
215       0.000139979679
216      -0.000262643426
217      -0.000183122841
218       0.000253977549
219      -0.000194898382
220      -0.000010520038
221      -0.000030591578
222       0.000075188097
223       0.000007932130
224       0.000015940847
225       0.000072995240
226      -0.000024722316
227      -0.000002620300
228      -0.000071368295
 Sym=     1a
 Ene= -1.65183039723822E+00
 Spin= Alpha
 Occup= 2.000000
  1       0.052849135212
  2       0.007525546354
  3       0.063668623394
  4       0.036738051048
  5      -0.124124007603
  6      -0.191363646405
  7      -0.034984823913
  8       0.042839882648
  9      -0.000007190232
 10      -0.043160686974
 11      -0.048213896096
 12       0.000006515129
 13       0.048539289014
 14      -0.026146395048
 15       0.000002307612
 16       0.026116904126
 17      -0.001474159301
 18      -0.000000098385
 19       0.001445868955
 20      -0.000572032323
 21       0.001903495046
 22      -0.000013094034
 23      -0.000938596483
 24      -0.000011887144
 25      -0.003236554863
 26       0.010964603041
 27      -0.000068553547
 28      -0.005439799663
 29      -0.000064655828
 30      -0.003170300566
 31       0.011116166575