[Molden Format]
[Atoms] (Angs)
  N      1    7      0.52000000      0.53000000      0.51000000
  N      2    7     -0.52000000     -0.52000000      0.52000000
  N      3    7     -0.52000000      0.52000000     -0.52000000
  N      4    7      0.52000000     -0.52000000     -0.52000000
[GTO]
1    0
S    8    1.000000
   9.07268892E+04    3.92578874E-05 
   1.35905288E+04    3.05133165E-04 
   3.09298838E+03    1.60005604E-03 
   8.75998764E+02    6.69829373E-03 
   2.85744700E+02    2.36900788E-02 
   1.03119134E+02    7.14554053E-02 
   4.01285568E+01    1.76327749E-01 
   1.65280957E+01    3.26775928E-01 
S    2    1.000000
   6.93909610E+01    8.00520944E-02 
   2.04282006E+01    7.82680635E-01 
S    1    1.000000
   7.12925880E+00    1.00000000E+00 
S    1    1.000000
   3.13243049E+00    1.00000000E+00 
S    1    1.000000
   9.87557787E-01    1.00000000E+00 
S    1    1.000000
   3.87657213E-01    1.00000000E+00 
S    1    1.000000
   1.49098831E-01    1.00000000E+00 
P    5    1.000000
   1.50057427E+02   -8.62161660E-04 
   3.54915995E+01   -6.85712732E-03 
   1.12478642E+01   -3.17956889E-02 
   4.09003052E+00   -1.05373968E-01 
   1.62205731E+00   -2.45197080E-01 
P    1    1.000000
   6.64422615E-01    1.00000000E+00 
P    1    1.000000
   2.70997701E-01    1.00000000E+00 
P    1    1.000000
   1.06887500E-01    1.00000000E+00 
D    1    1.000000
   2.83700000E+00    1.00000000E+00 
D    1    1.000000
   9.68000000E-01    1.00000000E+00 
D    1    1.000000
   3.35000000E-01    1.00000000E+00 
F    1    1.000000
   2.02700000E+00    1.00000000E+00 
F    1    1.000000
   6.85000000E-01    1.00000000E+00 
G    1    1.000000
   1.42700000E+00    1.00000000E+00 

2    0
S    8    1.000000
   9.07268892E+04    3.92578874E-05 
   1.35905288E+04    3.05133165E-04 
   3.09298838E+03    1.60005604E-03 
   8.75998764E+02    6.69829373E-03 
   2.85744700E+02    2.36900788E-02 
   1.03119134E+02    7.14554053E-02 
   4.01285568E+01    1.76327749E-01 
   1.65280957E+01    3.26775928E-01 
S    2    1.000000
   6.93909610E+01    8.00520944E-02 
   2.04282006E+01    7.82680635E-01 
S    1    1.000000
   7.12925880E+00    1.00000000E+00 
S    1    1.000000
   3.13243049E+00    1.00000000E+00 
S    1    1.000000
   9.87557787E-01    1.00000000E+00 
S    1    1.000000
   3.87657213E-01    1.00000000E+00 
S    1    1.000000
   1.49098831E-01    1.00000000E+00 
P    5    1.000000
   1.50057427E+02   -8.62161660E-04 
   3.54915995E+01   -6.85712732E-03 
   1.12478642E+01   -3.17956889E-02 
   4.09003052E+00   -1.05373968E-01 
   1.62205731E+00   -2.45197080E-01 
P    1    1.000000
   6.64422615E-01    1.00000000E+00 
P    1    1.000000
   2.70997701E-01    1.00000000E+00 
P    1    1.000000
   1.06887500E-01    1.00000000E+00 
D    1    1.000000
   2.83700000E+00    1.00000000E+00 
D    1    1.000000
   9.68000000E-01    1.00000000E+00 
D    1    1.000000
   3.35000000E-01    1.00000000E+00 
F    1    1.000000
   2.02700000E+00    1.00000000E+00 
F    1    1.000000
   6.85000000E-01    1.00000000E+00 
G    1    1.000000
   1.42700000E+00    1.00000000E+00 

3    0
S    8    1.000000
   9.07268892E+04    3.92578874E-05 
   1.35905288E+04    3.05133165E-04 
   3.09298838E+03    1.60005604E-03 
   8.75998764E+02    6.69829373E-03 
   2.85744700E+02    2.36900788E-02 
   1.03119134E+02    7.14554053E-02 
   4.01285568E+01    1.76327749E-01 
   1.65280957E+01    3.26775928E-01 
S    2    1.000000
   6.93909610E+01    8.00520944E-02 
   2.04282006E+01    7.82680635E-01 
S    1    1.000000
   7.12925880E+00    1.00000000E+00 
S    1    1.000000
   3.13243049E+00    1.00000000E+00 
S    1    1.000000
   9.87557787E-01    1.00000000E+00 
S    1    1.000000
   3.87657213E-01    1.00000000E+00 
S    1    1.000000
   1.49098831E-01    1.00000000E+00 
P    5    1.000000
   1.50057427E+02   -8.62161660E-04 
   3.54915995E+01   -6.85712732E-03 
   1.12478642E+01   -3.17956889E-02 
   4.09003052E+00   -1.05373968E-01 
   1.62205731E+00   -2.45197080E-01 
P    1    1.000000
   6.64422615E-01    1.00000000E+00 
P    1    1.000000
   2.70997701E-01    1.00000000E+00 
P    1    1.000000
   1.06887500E-01    1.00000000E+00 
D    1    1.000000
   2.83700000E+00    1.00000000E+00 
D    1    1.000000
   9.68000000E-01    1.00000000E+00 
D    1    1.000000
   3.35000000E-01    1.00000000E+00 
F    1    1.000000
   2.02700000E+00    1.00000000E+00 
F    1    1.000000
   6.85000000E-01    1.00000000E+00 
G    1    1.000000
   1.42700000E+00    1.00000000E+00 

4    0
S    8    1.000000
   9.07268892E+04    3.92578874E-05 
   1.35905288E+04    3.05133165E-04 
   3.09298838E+03    1.60005604E-03 
   8.75998764E+02    6.69829373E-03 
   2.85744700E+02    2.36900788E-02 
   1.03119134E+02    7.14554053E-02 
   4.01285568E+01    1.76327749E-01 
   1.65280957E+01    3.26775928E-01 
S    2    1.000000
   6.93909610E+01    8.00520944E-02 
   2.04282006E+01    7.82680635E-01 
S    1    1.000000
   7.12925880E+00    1.00000000E+00 
S    1    1.000000
   3.13243049E+00    1.00000000E+00 
S    1    1.000000
   9.87557787E-01    1.00000000E+00 
S    1    1.000000
   3.87657213E-01    1.00000000E+00 
S    1    1.000000
   1.49098831E-01    1.00000000E+00 
P    5    1.000000
   1.50057427E+02   -8.62161660E-04 
   3.54915995E+01   -6.85712732E-03 
   1.12478642E+01   -3.17956889E-02 
   4.09003052E+00   -1.05373968E-01 
   1.62205731E+00   -2.45197080E-01 
P    1    1.000000
   6.64422615E-01    1.00000000E+00 
P    1    1.000000
   2.70997701E-01    1.00000000E+00 
P    1    1.000000
   1.06887500E-01    1.00000000E+00 
D    1    1.000000
   2.83700000E+00    1.00000000E+00 
D    1    1.000000
   9.68000000E-01    1.00000000E+00 
D    1    1.000000
   3.35000000E-01    1.00000000E+00 
F    1    1.000000
   2.02700000E+00    1.00000000E+00 
F    1    1.000000
   6.85000000E-01    1.00000000E+00 
G    1    1.000000
   1.42700000E+00    1.00000000E+00 

[MO]
Sym=X
Ene= -15.748880
Spin=Alpha
Occup=1
     1    2.791062374939e-01
     2   -2.095971240605e-04
     3    1.857430733598e-01
     4    8.464468113723e-02
     5    5.612036305585e-03
     6   -1.848837917146e-03
     7    9.049453739033e-04
     8    1.080790476448e-03
     9    1.089718630451e-03
    10    1.072077298853e-03
    11    9.378928112408e-04
    12    9.665954590357e-04
    13    9.133978873434e-04
    14   -7.542226226389e-04
    15   -7.265313091531e-04
    16   -7.693878782000e-04
    17    5.068697534685e-06
    18    6.703382517315e-06
    19    4.085410576621e-06
    20   -2.462614158111e-06
    21    4.107348267792e-05
    22    4.341776565983e-05
    23   -1.676436297809e-06
    24    4.521785385298e-05
    25    1.349842550893e-05
    26   -3.795104850950e-05
    27   -5.423752781879e-05
    28    9.161867109662e-06
    29   -6.764827559624e-05
    30    5.243891859132e-06
    31    2.711073627645e-04
    32    2.535801384113e-04
    33    5.582332446429e-06
    34    2.424709062363e-04
    35   -6.028846187272e-06
    36    1.401681713394e-06
    37    2.941012955958e-06
    38   -1.674327997818e-06
    39    1.600263053780e-05
    40   -7.148060538674e-06
    41    6.399835194567e-06
    42    6.208249418240e-05
    43   -4.449065686683e-05
    44   -3.783148991591e-05
    45   -6.367029527609e-06
    46    4.638420151400e-05
    47    4.049661888200e-05
    48   -4.226241841587e-05
    49   -9.500882375635e-06
    50    6.684790839378e-06
    51    5.920030792769e-06
    52    1.740610474047e-06
    53   -1.472995252162e-05
    54    1.786874148732e-05
    55   -1.552201657130e-05
    56   -4.766119013708e-06
    57    1.056703524081e-07
    58    2.650246475347e-01
    59   -1.957011585490e-04
    60    1.763620386038e-01
    61    8.040264337774e-02
    62    5.211106484555e-03
    63   -1.587986811756e-03
    64    1.038522301203e-03
    65   -1.014927101115e-03
    66   -1.016695399048e-03
    67    1.026136073097e-03
    68   -8.841147421521e-04
    69   -8.763130820853e-04
    70    8.764868189144e-04
    71    8.041544105982e-04
    72    8.452787166691e-04
    73   -8.351398779414e-04
    74    4.901930428708e-06
    75    6.894851194435e-06
    76   -5.803443276623e-06
    77   -1.689612228704e-07
    78   -3.925157538089e-05
    79   -3.707087944197e-05
    80    7.805012354476e-07
    81    3.808141493358e-05
    82    5.252861796004e-06
    83    4.618979393253e-05
    84    3.626439416732e-05
    85   -3.770801005183e-06
    86   -4.866741902723e-05
    87   -1.859719682454e-07
    88   -2.758171910545e-04
    89   -2.981714501066e-04
    90   -1.456751850015e-05
    91    2.817998862837e-04
    92   -6.975916686412e-06
    93   -3.214325385910e-06
    94   -3.605887910026e-06
    95   -4.102992718914e-07
    96    1.610292631922e-05
    97    7.062904907639e-06
    98   -6.918319030418e-06
    99    6.616867622493e-05
   100    3.563521573346e-05
   101    4.346551571641e-05
   102    8.599548878929e-06
   103    4.153155046435e-05
   104   -5.503420755073e-05
   105    4.849906019891e-05
   106   -9.375446508533e-06
   107   -5.930263627248e-06
   108   -6.446138187870e-06
   109   -2.005873871101e-06
   110   -1.782327715225e-05
   111   -1.596975320214e-05
   112    1.777473202718e-05
   113   -8.110824600258e-06
   114   -5.476630645043e-07
   115    2.885186102440e-01
   116   -2.191007353638e-04
   117    1.920129713985e-01
   118    8.748043924991e-02
   119    5.883341868538e-03
   120   -2.030253221951e-03
   121    8.198249285661e-04
   122   -1.128161475190e-03
   123    1.115707240507e-03
   124   -1.125815885166e-03
   125   -9.760827128429e-04
   126    9.860613663260e-04
   127   -9.810924573921e-04
   128    7.220865052322e-04
   129   -6.797809433339e-04
   130    6.910716994548e-04
   131   -1.111073458669e-05
   132    1.265007769680e-05
   133   -1.240277129398e-05
   134    8.188604352679e-09
   135    4.629062164975e-05
   136   -4.783503772042e-05
   137   -8.062207870265e-07
   138   -4.623097759219e-05
   139    1.654668264082e-06
   140   -5.214270294964e-05
   141    6.766748713141e-05
   142    7.895057833411e-06
   143    6.018442338733e-05
   144   -7.185473215613e-06
   145    2.449636843892e-04
   146   -2.220986984286e-04
   147    1.039327862369e-05
   148   -2.387151909788e-04
   149    5.462417192935e-06
   150   -2.213074294001e-06
   151    3.618630242539e-06
   152    1.340127291339e-06
   153    1.621927783739e-05
   154    5.480526461914e-06
   155    5.190452666747e-06
   156   -5.562330523825e-05
   157    3.317063297307e-05
   158   -2.790330981732e-05
   159    7.194149542225e-06
   160    5.046676198341e-05
   161   -4.396377050806e-05
   162   -4.637036575582e-05
   163   -6.183074908937e-06
   164    5.542556579972e-06
   165   -5.212257742224e-06
   166    1.533062246840e-06
   167    1.660277408446e-05
   168    1.590247948939e-05
   169    1.425241590253e-05
   170   -6.319954408681e-06
   171    3.915227961280e-08
   172    2.751323380023e-01
   173   -2.058456711115e-04
   174    1.830954173778e-01
   175    8.344762864157e-02
   176    5.499945297226e-03
   177   -1.775842323936e-03
   178    9.491476054289e-04
   179    1.064263305237e-03
   180   -1.066144659455e-03
   181   -1.062075889369e-03
   182    9.235432725337e-04
   183   -9.154054403022e-04
   184   -9.282592550715e-04
   185   -7.684678988167e-04
   186    8.122731706912e-04
   187    7.399919042094e-04
   188    1.655556662218e-06
   189    3.545453592499e-07
   190   -2.936123468920e-06
   191    9.214326392058e-07
   192   -4.387457256173e-05
   193    4.156773118266e-05
   194    8.109203523875e-07
   195   -4.009030905484e-05
   196   -5.017695496502e-06
   197    5.974333857575e-05
   198   -4.931132583847e-05
   199   -3.944621578201e-06
   200    4.234177715409e-05
   201   -2.128206591879e-05
   202   -2.428845165082e-04
   203    2.667174308071e-04
   204   -1.525339706342e-05
   205   -2.818693686007e-04
   206    6.505824874644e-06
   207    3.517325529582e-06
   208   -3.995971092250e-06
   209    4.163219713850e-07
   210    1.614027458530e-05
   211   -5.727340283166e-06
   212   -5.569288357897e-06
   213   -6.137096078874e-05
   214   -2.528586419914e-05
   215    3.108510500296e-05
   216   -1.064072476497e-05
   217    4.574994133312e-05
   218    5.703463733158e-05
   219    5.231932144713e-05
   220   -6.447854606896e-06
   221   -5.366691442195e-06
   222    5.244498891984e-06
   223   -2.136588104406e-06
   224    1.879262385545e-05
   225   -1.453660045000e-05
   226   -1.668862560765e-05
   227   -9.116927241691e-06
   228    1.602431724581e-07
Sym=X
Ene= -15.747971
Spin=Alpha
Occup=1
     1   -1.664076785386e-01
     2    1.537455118509e-04
     3   -1.108632266684e-01
     4   -5.014587822978e-02
     5   -4.701595238064e-03
     6    3.279590805936e-03
     7    1.962344191964e-03
     8   -7.260281036570e-04
     9   -6.843455534033e-04
    10   -7.114043336053e-04
    11   -1.010451747358e-03
    12   -4.298488058149e-04
    13   -8.809666565949e-04
    14   -1.950763764709e-03
    15    2.997405373168e-04
    16   -1.469632073583e-03
    17   -2.252852949594e-04
    18   -8.853985237821e-05
    19   -1.934885932507e-04
    20   -2.084627039162e-05
    21   -1.373897238322e-04
    22   -1.036045319782e-05
    23   -6.581665043753e-05
    24   -3.753570995979e-05
    25    8.366988713911e-05
    26    4.774582945659e-04
    27   -7.903709778905e-05
    28    2.627256070349e-04
    29    4.013711887962e-05
    30    2.127385275815e-04
    31    1.126064976057e-03
    32   -1.627474247124e-04
    33    6.576979902432e-04
    34    1.099761645501e-04
    35   -5.592086670032e-06
    36    1.288079254736e-05
    37    2.846766697666e-06
    38    1.688805986524e-05
    39    1.148173008114e-06
    40    4.606283150639e-06
    41    9.533116304234e-06
    42    8.437439426177e-05
    43   -3.605437168928e-04
    44    7.401776057128e-05
    45   -4.878341791253e-04
    46   -4.444796148693e-05
    47   -1.537585563485e-04
    48   -7.128462797200e-05
    49   -4.137532495148e-05
    50    2.231515889095e-05
    51   -3.024790659713e-06
    52    1.197735685605e-04
    53    6.276884108451e-06
    54    6.881424417747e-05
    55    2.790605345777e-05
    56    1.778298119332e-05
    57    7.319956385740e-06
    58   -8.381571826696e-02
    59    7.691667649393e-05
    60   -5.583769342535e-02
    61   -2.526260659277e-02
    62   -2.333193245606e-03
    63    1.578180230779e-03
    64    9.166973957485e-04
    65    3.246256979350e-04
    66    3.689939872102e-04
    67   -3.669927802550e-04
    68    2.535524560537e-05
    69    5.851340661317e-04
    70   -5.257205828043e-04
    71   -8.862527910614e-04
    72    1.282919123120e-03
    73   -1.045428126478e-03
    74   -8.331285163563e-06
    75    1.306021377223e-04
    76   -1.188178741256e-04
    77   -2.928046131176e-05
    78   -1.634029776759e-05
    79    1.088274201902e-04
    80    6.388973637524e-05
    81    3.408767000767e-06
    82    1.132964123441e-04
    83    1.325310139689e-04
    84   -4.109654354388e-04
    85   -2.511538556215e-04
    86   -7.383181117926e-05
    87    2.865249634032e-04
    88    3.025038598477e-04
    89   -9.586219016691e-04
    90   -6.300448689767e-04
    91   -1.658979718828e-04
    92   -1.753411301741e-06
    93   -2.707163723223e-06
    94   -1.439655558586e-05
    95   -1.868487443917e-05
    96    2.759338745773e-07
    97    5.325458972116e-06
    98    9.392842483798e-06
    99    5.440450907587e-05
   100   -5.887133091536e-05
   101    3.788750928818e-04
   102    4.783837851699e-04
   103   -1.690541443676e-05
   104   -2.788341229863e-06
   105   -2.092489705573e-04
   106   -4.270811907539e-05
   107    4.927568671615e-06
   108   -2.317792281337e-05
   109   -1.191051226815e-04
   110    1.822391746501e-05
   111    2.847398360944e-05
   112    6.304308005029e-05
   113    3.596923139785e-05
   114   -5.757960928207e-06
   115    4.647202477086e-01
   116   -4.352610624204e-04
   117    3.096191438235e-01
   118    1.399953132501e-01
   119    1.328396552058e-02
   120   -9.283225228095e-03
   121   -5.685610687301e-03
   122   -1.998475619444e-03
   123    1.966887750356e-03
   124   -1.983297017000e-03
   125   -2.226659888440e-03
   126    2.117850711725e-03
   127   -2.097556679752e-03
   128   -3.308470217492e-03
   129    2.947790358543e-03
   130   -2.811174759884e-03
   131   -5.023661493155e-04
   132    4.815384872758e-04
   133   -4.713996377644e-04
   134   -1.227224010743e-05
   135    1.771084603682e-04
   136   -1.571014992321e-04
   137    1.043504354494e-05
   138   -1.845192582998e-04
   139    4.859612821637e-05
   140   -4.130688360134e-04
   141    3.317038850077e-04
   142   -3.745948838317e-05
   143    4.495542372376e-04
   144    1.150122378023e-04
   145   -1.066242416101e-03
   146    8.694509214498e-04
   147   -9.946637968064e-05
   148    1.148042756346e-03
   149   -2.095654140271e-05
   150    1.001958056348e-05
   151   -9.115306867453e-06
   152    2.079273624020e-06
   153   -5.181093189212e-06
   154   -1.674042210052e-05
   155   -1.831726689271e-05
   156    1.812562222461e-04
   157   -8.767036607931e-05
   158    2.840766724909e-05
   159   -6.732849217089e-05
   160    1.003634101461e-04
   161    1.794366936030e-04
   162    2.081235996925e-04
   163    3.171183849770e-05
   164   -1.367656075243e-05
   165    1.078947236418e-05
   166   -1.608889901773e-05
   167   -5.498417979570e-05
   168   -4.420904486907e-05
   169   -3.227505240172e-05
   170    5.337560471248e-05
   171    1.672690110352e-07
   172   -2.377769237535e-01
   173    2.208706066600e-04
   174   -1.584133046883e-01
   175   -7.164619674166e-02
   176   -6.702769397600e-03
   177    4.575974401531e-03
   178    2.728350322243e-03
   179   -1.022581564228e-03
   180    1.020209694242e-03
   181    9.810661950775e-04
   182   -1.268982027971e-03
   183    1.203989067606e-03
   184    7.635662417901e-04
   185   -2.180637760517e-03
   186    1.930082686565e-03
   187    2.310778608381e-04
   188   -2.848619090505e-04
   189    2.673468431505e-04
   190    1.578495119756e-04
   191    6.282367093553e-05
   192    5.866870294895e-05
   193   -4.385338652232e-05
   194   -7.030023893453e-06
   195    1.565203585708e-04
   196   -2.456760849199e-04
   197   -7.753302070492e-05
   198    1.274202092018e-05
   199    2.859097667005e-05
   200   -5.015668398072e-04
   201   -6.126961474929e-04
   202   -2.162903432766e-04
   203    7.009321034270e-05
   204    7.268780883824e-05
   205   -1.201819470781e-03
   206    1.255846640613e-05
   207   -6.456952376029e-06
   208    7.871680041832e-06
   209   -2.173601136685e-06
   210    2.183074863061e-06
   211   -1.528616925887e-05
   212   -1.689893421968e-05
   213   -3.438885025194e-05
   214    2.196943768196e-04
   215   -2.703657263675e-04
   216    5.654470215379e-05
   217   -5.359104435335e-05
   218    3.263774643631e-04
   219    3.508969503171e-04
   220    5.312992746675e-05
   221    5.015577659958e-06
   222   -8.221344333342e-06
   223    1.414881967249e-05
   224    7.394973545273e-05
   225   -1.513598935395e-06
   226    8.884928533688e-06
   227   -1.067668236501e-04
   228   -7.152025354247e-07
Sym=X
Ene= -15.747956
Spin=Alpha
Occup=1
     1    4.458870673297e-01
     2   -4.169167868069e-04
     3    2.970727596583e-01
     4    1.343245462461e-01
     5    1.268155100166e-02
     6   -8.745813474558e-03
     7   -5.316388524739e-03
     8    1.885458331916e-03
     9    1.914772349713e-03
    10    1.883402869278e-03
    11    1.919384757560e-03
    12    2.145955608151e-03
    13    2.041071085775e-03
    14    2.382703554805e-03
    15    3.221651654563e-03
    16    2.895519270570e-03
    17    4.286591537313e-04
    18    4.872801860350e-04
    19    4.544969875347e-04
    20    2.734105382817e-07
    21    1.420624091012e-04
    22    1.901201884973e-04
    23   -2.630579759251e-05
    24    1.611214055851e-04
    25   -3.325803762272e-06
    26   -2.795070084788e-04
    27   -4.887747089831e-04
    28    1.027457593645e-04
    29   -3.619653347087e-04
    30   -1.669940721705e-05
    31   -7.506100201312e-04
    32   -1.230682270850e-03
    33    2.532037945657e-04
    34   -9.303381640187e-04
    35    1.986162514478e-05
    36   -9.628359438085e-06
    37   -1.378026883857e-05
    38    7.351325776212e-06
    39   -5.224106067564e-06
    40    1.835158677321e-05
    41   -1.195509088280e-05
    42   -1.864110017962e-04
    43    3.801176307021e-05
    44    1.996242756453e-04
    45   -1.857903089160e-04
    46    9.989925374982e-05
    47   -1.695191012863e-04
    48    8.010110297381e-05
    49    4.709257553650e-05
    50   -1.004932819845e-05
    51   -1.816743170270e-05
    52    4.437352565458e-05
    53    3.774128252381e-05
    54   -2.357077557585e-05
    55    5.864015273854e-05
    56    2.992543542696e-05
    57    3.196159325599e-06
    58   -1.431558990383e-01
    59    1.333793756694e-04
    60   -9.537632729690e-02
    61   -4.313222181954e-02
    62   -4.013590351031e-03
    63    2.665339403309e-03
    64    1.576045294969e-03
    65    6.030773222318e-04
    66    6.223615055494e-04
    67   -5.848824305599e-04
    68    6.690962664665e-04
    69    8.945901481907e-04
    70   -3.345004081577e-04
    71    9.968075111405e-04
    72    1.880866184757e-03
    73    3.381999880260e-04
    74    1.508044740332e-04
    75    2.047070307915e-04
    76   -6.066751649955e-05
    77    6.144850302181e-05
    78   -7.446959989225e-06
    79    4.201210662270e-05
    80    2.649029648295e-05
    81   -1.204050363956e-04
    82   -2.398521553473e-04
    83    1.400061541617e-04
    84   -7.425928723146e-05
    85   -1.039288603638e-04
    86    4.136526769277e-04
    87   -6.062238309683e-04
    88    3.007782236036e-04
    89   -2.028457365777e-04
    90   -2.617125303498e-04
    91    9.909506674739e-04
    92   -9.183692617066e-06
    93    1.302754667441e-05
    94    8.236415379153e-06
    95   -7.390274494101e-06
    96    2.122776137760e-06
    97    1.773634833078e-05
    98   -1.135157140548e-05
    99    3.337702153871e-06
   100   -3.540818016029e-04
   101   -1.824414417594e-04
   102    1.897487585133e-04
   103   -3.911972815159e-05
   104   -3.573555322678e-04
   105    2.637827634245e-04
   106    6.232634422010e-05
   107    1.622787444690e-05
   108    5.388678877345e-06
   109   -4.647650224836e-05
   110   -6.535955639549e-05
   111    3.089455119470e-05
   112    5.825322523033e-06
   113   -9.983738367169e-05
   114   -4.156476806526e-06
   115   -1.759425327938e-02
   116    1.552966131795e-05
   117   -1.171939016943e-02
   118   -5.306851215213e-03
   119   -4.985281202280e-04
   120    3.929538380560e-04
   121    2.337829547346e-04
   122    8.639472165018e-05
   123   -4.581115187308e-05
   124    9.520933202570e-05
   125    2.174395498370e-04
   126    2.773041377921e-04
   127    3.360662448918e-04
   128    6.008297804696e-04
   129    1.318012046987e-03
   130    1.056189930816e-03
   131    4.652646481544e-05
   132    6.684643674621e-05
   133    7.729239196912e-05
   134   -4.687133116468e-05
   135   -8.720409231723e-05
   136   -2.059082733598e-05
   137   -5.505105527844e-05
   138   -4.793528175215e-05
   139    1.855636885198e-04
   140    3.708371434164e-04
   141    1.016121503366e-04
   142    2.191409286703e-04
   143    2.207386818286e-04
   144    4.666668915533e-04
   145    8.568495624416e-04
   146    2.439544943678e-04
   147    5.518010941706e-04
   148    5.169442763324e-04
   149   -1.835112924581e-06
   150   -1.348061743406e-05
   151    5.114026165191e-06
   152   -1.402568007888e-05
   153   -6.192792483370e-07
   154   -1.158079959885e-05
   155    4.412120632290e-08
   156   -5.178884959165e-05
   157    4.160057482477e-04
   158   -4.435576078009e-05
   159    4.077155707712e-04
   160    2.520017487269e-06
   161    2.928105724650e-04
   162    1.123441413846e-04
   163   -5.895622278296e-05
   164    2.190806262966e-05
   165    1.061931811689e-06
   166    1.007607713090e-04
   167   -3.826901149482e-05
   168    5.871223329769e-05
   169   -1.871048458692e-05
   170    6.666854635962e-05
   171   -4.721451410640e-06
   172   -2.959763899110e-01
   173    2.758380340947e-04
   174   -1.971910745184e-01
   175   -8.917283500052e-02
   176   -8.383302824807e-03
   177    5.758469202852e-03
   178    3.469864175699e-03
   179   -1.234536511596e-03
   180    1.274930456995e-03
   181    1.259493481896e-03
   182   -1.069758781745e-03
   183    1.543542485249e-03
   184    1.431859374576e-03
   185   -7.549734947091e-04
   186    2.610740743612e-03
   187    2.168667437690e-03
   188   -2.312629578901e-04
   189    3.453506690595e-04
   190    3.214512144044e-04
   191   -1.474200729387e-05
   192    6.613184925871e-05
   193   -1.707846869136e-04
   194    5.522991432862e-05
   195    8.830225864651e-05
   196    5.921195490525e-05
   197   -6.557843025160e-05
   198    5.195497087666e-04
   199   -2.162737834841e-04
   200   -1.599148537070e-04
   201    1.529664634447e-04
   202   -1.998250662115e-04
   203    1.264366902524e-03
   204   -5.452841930823e-04
   205   -4.319683225920e-04
   206    1.217755292127e-05
   207    6.531397567776e-06
   208   -1.567349279440e-05
   209    1.599712414565e-05
   210    3.100344844883e-06
   211   -1.377194175389e-05
   212   -1.055023335881e-06
   213   -1.400732119538e-04
   214    2.782088259786e-05
   215    3.302312305940e-04
   216   -4.050687699474e-04
   217   -6.686540550677e-05
   218    1.044721295491e-04
   219   -8.076124899863e-05
   220   -4.981546230687e-05
   221   -1.193994160635e-06
   222    2.137850784574e-05
   223   -9.923187763771e-05
   224    1.174239490461e-05
   225    6.779886678973e-06
   226   -7.134374749495e-05
   227    3.142533547797e-06
   228    5.424410730499e-06
Sym=X
Ene= -15.747929
Spin=Alpha
Occup=1
     1   -5.270791422549e-02
     2    5.071613018117e-05
     3   -3.512128293791e-02
     4   -1.586709326075e-02
     5   -1.518813418173e-03
     6    1.009974502830e-03
     7    6.342928357267e-04
     8   -2.423294324272e-04
     9   -2.313442068453e-04
    10   -1.966686181210e-04
    11   -4.730895070749e-04
    12   -3.129215858272e-04
    13    1.031862508901e-04
    14   -1.313546075664e-03
    15   -6.766108099959e-04
    16    9.634621745907e-04
    17   -1.164034327878e-04
    18   -7.660791497438e-05
    19    3.001121061322e-05
    20    6.600009203993e-05
    21    6.017976485682e-07
    22    3.750020596919e-05
    23   -1.832663543801e-05
    24   -9.486331278772e-05
    25   -2.554935615289e-04
    26   -4.477681748620e-05
    27   -2.042670971426e-04
    28    7.138939034731e-05
    29    3.668216975563e-04
    30   -6.528224361973e-04
    31   -8.069314918962e-05
    32   -4.549224603842e-04
    33    1.825800643127e-04
    34    8.837357346476e-04
    35   -5.678716164776e-06
    36   -1.190020993972e-05
    37   -1.557708443277e-05
    38    5.933686369718e-06
    39    1.210273123212e-06
    40   -1.048815636199e-05
    41    1.486134394972e-05
    42   -4.597905257775e-05
    43    2.464693600655e-04
    44    3.742560040619e-04
    45   -1.431860342441e-04
    46   -5.604067160479e-06
    47    2.813470126601e-04
    48   -3.382400274658e-04
    49    7.689349758604e-05
    50   -7.270619583127e-06
    51   -1.386887656785e-05
    52    3.582827771647e-05
    53   -6.328338856267e-05
    54   -5.038241899390e-06
    55    3.224549408922e-05
    56   -1.016751583951e-04
    57   -1.989831157594e-07
    58    4.576358200193e-01
    59   -4.258745610731e-04
    60    3.048971347981e-01
    61    1.378777946264e-01
    62    1.292314114412e-02
    63   -8.807366838692e-03
    64   -5.287446360774e-03
    65   -1.929695248041e-03
    66   -1.921925760385e-03
    67    1.956660124661e-03
    68   -2.102664631635e-03
    69   -1.942633060713e-03
    70    2.165204826828e-03
    71   -2.965040855881e-03
    72   -2.332551974803e-03
    73    3.153263315239e-03
    74   -4.675483163841e-04
    75   -4.279281198024e-04
    76    4.789473820968e-04
    77    1.653870144391e-05
    78   -1.951085883786e-04
    79   -1.581521577726e-04
    80    1.733427435529e-05
    81    1.474888698883e-04
    82   -6.089177394620e-05
    83    5.037826465515e-04
    84    3.418281867180e-04
    85   -6.957038257298e-05
    86   -3.020756718008e-04
    87   -1.632642405030e-04
    88    1.253305726951e-03
    89    8.793819911461e-04
    90   -1.804593053810e-04
    91   -7.787774705203e-04
    92    1.883442354527e-05
    93    1.683512706850e-05
    94    1.328308414484e-05
    95   -5.525982874976e-06
    96   -4.982370368803e-06
    97   -1.119125408146e-05
    98    1.509102028480e-05
    99   -1.921997576821e-04
   100   -2.500840737535e-04
   101   -1.189773398770e-04
   102    1.411868529658e-04
   103    1.065776657877e-04
   104    4.137466474262e-05
   105   -9.961337834376e-05
   106    6.134866397374e-05
   107    2.131777016756e-05
   108    1.292630709187e-05
   109   -3.568968574771e-05
   110    2.676865070540e-05
   111    5.669839798748e-05
   112   -2.976818074969e-05
   113    1.299539617845e-05
   114   -7.265424453981e-07
   115   -8.755383467153e-02
   116    8.292990340496e-05
   117   -5.833622005293e-02
   118   -2.636585910867e-02
   119   -2.537033432700e-03
   120    1.793845330586e-03
   121    1.129859666380e-03
   122    3.504307842084e-04
   123   -3.778826191274e-04
   124    3.962587638356e-04
   125    7.450453289994e-05
   126   -4.754082568229e-04
   127    6.718848874377e-04
   128   -7.067860996352e-04
   129   -8.851390589355e-04
   130    1.640270708396e-03
   131    1.495774343956e-05
   132   -1.106785375117e-04
   133    1.602712738045e-04
   134   -5.218351759650e-05
   135   -1.796524605922e-05
   136    1.081706271535e-04
   137    4.606035111696e-05
   138   -2.584501430405e-05
   139    2.045455401110e-04
   140    8.728023392135e-06