[Molden Format]
[Molpro variables]
_NUMVAR=  785.0000000000000    
_AVOGAD= 0.6022136736000000E+24
_BOLTZ= 0.1380658000000000E-22
_CLIGHT=  29979245800.00000    
_EV2006= 0.3674930886769165E-01
_EV= 0.3674932534394180E-01
_ENULL= 0.8854187817000000E-11
_KJOULE= 0.3808798324128737E-03
_KJOULE/MOL= 0.3808798324128737E-03
_CM= 0.4556335267302901E-05
_CM-1= 0.4556335267302901E-05
_DEB2SI= 0.3335641000000000E-29
_AMU2AU=  1822.888390000000    
_KCAL= 0.1593601117815568E-02
_KCAL/MOL= 0.1593601117815568E-02
_KELVIN2006= 0.3166828861084835E-05
_KELVIN= 0.3166814820820034E-05
_JOULE= 0.4359748200000000E-17
_HERTZ2006= 0.1519829850815779E-15
_HERTZ= 0.1519829846011223E-15
_HZ2006= 0.1519829850815779E-15
_HZ= 0.1519829846011223E-15
_JPCAL=  4.184000000000000    
_PLANCK= 0.6626075540000000E-33
_TOA2006= 0.5291772490000000    
_TOA= 0.5291772090000000    
_TOANG2006= 0.5291772490000000    
_TOANG= 0.5291772090000000    
_TORAD= 0.1745329251994330E-01
_TOCM=  219474.6306700000    
_TODEBYE=  2.541580000000000    
_TOEV2006=  27.21139610000000    
_TOE= 0.4803242000000000E-09
_TOEV=  27.21138390000000    
_TOHERTZ2006=  6579683899900000.    
_TOHERTZ=  6579683920700000.    
_TOHZ2006=  6579683899900000.    
_TOHZ=  6579683920700000.    
_TOK2006=  315773.3000000000    
_TOK=  315774.7000000000    
_TOKCAL=  627.5096000000000    
_TOKELVIN2006=  315773.3000000000    
_TOKELVIN=  315774.7000000000    
_TOKJ=  2625.500000000000    
_TOKJOULE=  2625.500000000000    
_TOKG= 0.1660565586000000E-26
_ANG2006=  1.889725988578923    
_ANG=  1.889726131421507    
_ANGSTROM2006=  1.889725988578923    
_ANGSTROM=  1.889726131421507    
_RPAREF=  0.000000000000000    
_RPADISS=  0.000000000000000    
_IGNORE_UNDEF=  2.000000000000000    
_STRICTCHECK=  0.000000000000000    
_SEW_ONEEL=  0.000000000000000    
_CPPDONE=FALSE
_DKROLL_DONE=  0.000000000000000    
_FOCKDONE=TRUE
_GRADONE=FALSE
_HESSDONE=FALSE
_INTDONE=TRUE
_SCFDONE=TRUE
_MODUL_BLOCK=FALSE
_MODUL_CUDA=FALSE
_MODUL_SLATER=FALSE
_MODUL_MRCC=FALSE
_MODUL_NBO6=FALSE
_MODUL_NECI=TRUE
_MODUL_AIMS=TRUE
_MRCC_EXEC=
_FITC_AO_SAVED=FALSE
_FITC_MO_SAVED=FALSE
_SHARED_FS=TRUE
_LSTYP=SEWARD
_INTYP=INTS
_GEOMTYP=ZMAT
_GRADTYP=ALASKA
_DIRECT=FALSE
_DKHO= -1.000000000000000    
_SYNCM=  0.000000000000000    
_BASIS=DEF2-SVP
_ZORIENT=  1.000000000000000    
_NELEC=  28.00000000000000    
!SPIN=  0.000000000000000    
_QSDSTEP=  0.000000000000000    
_QSDIRC=  0.000000000000000    
_PROGRAM=HF-SCF
_CPUSTEP= 0.2000000000000000    
_SYSSTEP= 0.2999999999999997E-01
_WALLSTEP= 0.2300000000000000    
!DFSCF=  0.000000000000000    
!SCSGRD=  0.000000000000000    
_BASINP=  610.0000000000000    
_CPUTOT= 0.8700000000000000    
_CPUSORT= 0.1900000000000001    
_SYSSORT= 0.1600000000000000    
_WALLSORT= 0.3599999994039536    
_DFTEXFAC=  1.000000000000000    
_DMX=-0.4839558729009298E-04
_DMY= 0.3280125494863839E-02
_DMZ=-0.3301853976301755E-02
_DMX_SCF=-0.4839558729009298E-04
_DMY_SCF= 0.3280125494863839E-02
_DMZ_SCF=-0.3301853976301755E-02
_EHOMO=-0.5444312486939117    
_ELUMO= 0.1840020101533500    
_ENERGY= -217.3140080402372    
_ENUC=  105.7779401022931    
_GRADEXFAC=  9999.000000000000    
_GRADMETHOD=  1.000000000000000    
_NMRMETHOD=  0.000000000000000    
!GRID_FREEZE= -1.000000000000000    
_ITERATIONS=  9.000000000000000    
_LASTNELEC=  28.00000000000000    
_LASTSPIN=  0.000000000000000    
_LASTSYM=  1.000000000000000    
_MPP_PROG=  0.000000000000000    
_NPROC_MPP=  1.000000000000000    
_NPROC_MPPX=  1.000000000000000    
_NPROC_SMP=  1.000000000000000    
_NUMSTEP=  0.000000000000000    
_ORBITAL=  2100.200000000000    
_PI=  3.141592653589793    
_SEIG_MIN= 0.7342930502941786E-02
_SEWPROP=TRUE
_STATUS=  1.000000000000000    
_SYSTOT= 0.3100000000000000    
_VERSION=  2012001.000000000    
_WALLTOT=  1.380000000000000    
_DATE=03-Jun-15
_LASTORB=RHF
_MACHINE=Linux-3.13.0-32-generic/kbob-G41MT-S2(x86_64) 64 bit serial version
_OUTPUT=/home/kbob/git/molden2qmc/test/N4/MOLPRO/RHF/SVP/N4.xml
_PGROUP=C1
_TIME=17:29:24
_LIBMOL=/usr/local/molpro/molpros_2012_1_Linux_x86_64_i8/lib/
!VIBCNT=  0.000000000000000    
!RGHFCNT=  0.000000000000000    
!SURFREC=  0.000000000000000    
!POLYREC=  0.000000000000000    
!DIPREC=  0.000000000000000    
!VSCFREC=  0.000000000000000    
!VCIREC=  0.000000000000000    
!PVCIREC=  0.000000000000000    
!VMP2REC=  0.000000000000000    
!VMCSCFREC=  0.000000000000000    
!VMRCIREC=  0.000000000000000    
!VIBINFO=  0.000000000000000    
!GAREC=  0.000000000000000    
!SCFORB=  21002.00000000000    
!NEWMOL= -1.000000000000000    
!NEWSYM= -1.000000000000000    
_SLFILES=slscratch
_NGSSTO=  9.000000000000000    
_SIN=SIN
_COS=COS
_TAN=TAN
_ACOS=ACOS
_ASIN=ASIN
_ATAN=ATAN
_COSH=COSH
_SINH=SINH
_TANH=TANH
_ABS=ABS
_MOD=MOD
_ERF=ERF
_REFC=REFC
_ERFC=ERFC
_HYPOT=HYPOT
_J0=J0
_J1=J1
_JN=JN
_GAMMA=GAMMA
_LGAMMA=LGAMMA
_Y0=Y0
_Y1=Y1
_YN=YN
_EXP=EXP
_LOG=LOG
_LOG10=LOG10
_SQRT=SQRT
_INT=INT
_NINT=NINT
_MAX=MAX
_MIN=MIN
_COSMO=  0.000000000000000    
_COSMOIT=  0.000000000000000    
_COSMOES=  0.000000000000000    
_COSMOEDS=  0.000000000000000    
_COSMOEC=  0.000000000000000    
_COSMOEDCORR=  0.000000000000000    
_FEPSI=  1.000000000000000    
_SL_IsMM=  0.000000000000000    
_SL_NSYM=  1.000000000000000    
_SL_System_BitSw=  0.000000000000000    
_SL_Unique_atoms=  0.000000000000000    
_SL_GRAD=  0.000000000000000    
_SL_MAXUPD_Hess=  5.000000000000000    
_SL_N_PRINT_COD=  5.000000000000000    
_SL_PRINT_CODES=  0.000000000000000    
_SL_BasType=  0.000000000000000    
_SL_Energy_Pred=  0.000000000000000    
_SL_New_Coords=  0.000000000000000    
_SL_Total_Nuclea=  0.000000000000000    
_SL_Highest_Mltp=  0.000000000000000    
_SL_Ref_Geom=  0.000000000000000    
_SL_Symmetry_ope=  1.000000000000000    
_SL_agrad=  0.000000000000000    
_SL_GrdMax=  0.000000000000000    
_SL_GrdNorm=  0.000000000000000    
_SL_GrdRMS=  0.000000000000000    
!LATTICE= -1.000000000000000    
!NEWLATTICE=  0.000000000000000    
!LATGRAD_VAR=FALSE
!SEW_LATTICE=  1.000000000000000    
!LOCAL=  0.000000000000000    
!SAVEDOM= -1.000000000000000    
!RESTDOM= -1.000000000000000    
!SAVEDOM_HF= -1.000000000000000    
!RESTDOM_HF= -1.000000000000000    
!HESSREC=  0.000000000000000    
!FREQREC=  0.000000000000000    
!NMODREC=  0.000000000000000    
!GTASKS=  0.000000000000000    
!HTASKS=  0.000000000000000    
!THRCHG= 0.1000000000000000    
!DEBUG= -1.000000000000000    
!CFIT_CPHF=  0.000000000000000    
!RDOMAUX_CPHF=  3.000000000000000    
!THRAO_CPHF= 0.1000000000000000E-09
!THRMO_CPHF= 0.1000000000000000E-08
!THROV_CPHF= 0.1000000000000000E-11
!THRSW_CPHF= 0.1000000000000000E-09
!THRPROD_CPHF= 0.1000000000000000E-08
!THRAOPR_CPHF= 0.1000000000000000E-11
!CFIT_SCFGRD=  0.000000000000000    
!RDOMAUX_SCFGRD=  5.000000000000000    
!THRAO_SCFGRD= 0.1000000000000000E-09
!THRMO_SCFGRD= 0.1000000000000000E-08
!THROV_SCFGRD= 0.1000000000000000E-11
!THRSW_SCFGRD= 0.1000000000000000E-09
!THRPROD_SCFGRD= 0.1000000000000000E-08
!THRAOPR_SCFGRD= 0.1000000000000000E-11
!LOCFIT_SCF=  0.000000000000000    
!LOCFIT_MP2= -1.000000000000000    
_RIDOM=  0.000000000000000    
!CC2_METHOD=  0.000000000000000    
_BASIS2006=FALSE
_SVDDEL= -1.000000000000000    
_SVDDELA= -1.000000000000000    
_SVDDELP= -1.000000000000000    
_SVDDELF= -1.000000000000000    
_SVDDELS= -1.000000000000000    
_SVDDEL_ABS= -1.000000000000000    
_SVDDELA_ABS= -1.000000000000000    
_SVDDELP_ABS= -1.000000000000000    
_SVDDELF_ABS= -1.000000000000000    
_SVDDELS_ABS= -1.000000000000000    
_MAXBASIS=  0.000000000000000    
!OPT_CONICAL=  0.000000000000000    
!CLEARSP_JGRID=  0.000000000000000    
_4EXT_NDISKS=  1.000000000000000    
!ZMP=  0.000000000000000    
_MAXIT_ZMP=  500.0000000000000    
_MAXDIS_ZMP=  100.0000000000000    
_ACCU_ZMP=  14.00000000000000    
_SHIFTA_ZMP= -100.0000000000000    
!EMBEDFLAG=  1.000000000000000    
!EMBED=FALSE
!EMBED_F12=FALSE
!EMBEDNUC=  0.000000000000000    
_EMBEDENERGY=  0.000000000000000    
_KSPACETIME=  0.000000000000000    
_RSPACETIME=  0.000000000000000    
!EMBED_DFC=FALSE
!NUM_VOIDS=  0.000000000000000    
_IBODY=  0.000000000000000    
_EMBE_TOTAL=  0.000000000000000    
_EMBE_HF=  0.000000000000000    
_EMBE_CORR=  0.000000000000000    
!EDFT=  0.000000000000000    
_IFASTLATGRAD=  0.000000000000000    
_SINDEX=  0.000000000000000    
GEOMTYP=XYZ
GX1= 0.5200000000000000    
GY1= 0.5300000000000000    
GZ1= 0.5100000000000000    
GX2=-0.5200000000000000    
GY2=-0.5200000000000000    
GZ2= 0.5200000000000000    
GX3=-0.5200000000000000    
GY3= 0.5200000000000000    
GZ3=-0.5200000000000000    
GX4= 0.5200000000000000    
GY4=-0.5200000000000000    
GZ4=-0.5200000000000000    
[Atoms] Angs
N     1    7         0.5200000000        0.5300000000        0.5100000000
N     2    7        -0.5200000000       -0.5200000000        0.5200000000
N     3    7        -0.5200000000        0.5200000000       -0.5200000000
N     4    7         0.5200000000       -0.5200000000       -0.5200000000
[GTO]
  1 0
 s    5  1.00
  0.1712841585D+04 -0.5447799580D-02
  0.2576481268D+03 -0.4062717463D-01
  0.5845824585D+02 -0.1811196225D+00
  0.1619836791D+02 -0.4684397556D+00
  0.5005260081D+01 -0.4461684629D+00
 s    1  1.00
  0.5873185657D+00  0.1000000000D+01
 s    1  1.00
  0.1876459225D+00  0.1000000000D+01
 p    3  1.00
  0.1357147023D+02 -0.5884811697D-01
  0.2925737287D+01 -0.3202462476D+00
  0.7992775075D+00 -0.7532822652D+00
 p    1  1.00
  0.2195434803D+00  0.1000000000D+01
 d    1  1.00
  0.1000000000D+01  0.1000000000D+01
  
  2 0
 s    5  1.00
  0.1712841585D+04 -0.5447799580D-02
  0.2576481268D+03 -0.4062717463D-01
  0.5845824585D+02 -0.1811196225D+00
  0.1619836791D+02 -0.4684397556D+00
  0.5005260081D+01 -0.4461684629D+00
 s    1  1.00
  0.5873185657D+00  0.1000000000D+01
 s    1  1.00
  0.1876459225D+00  0.1000000000D+01
 p    3  1.00
  0.1357147023D+02 -0.5884811697D-01
  0.2925737287D+01 -0.3202462476D+00
  0.7992775075D+00 -0.7532822652D+00
 p    1  1.00
  0.2195434803D+00  0.1000000000D+01
 d    1  1.00
  0.1000000000D+01  0.1000000000D+01
  
  3 0
 s    5  1.00
  0.1712841585D+04 -0.5447799580D-02
  0.2576481268D+03 -0.4062717463D-01
  0.5845824585D+02 -0.1811196225D+00
  0.1619836791D+02 -0.4684397556D+00
  0.5005260081D+01 -0.4461684629D+00
 s    1  1.00
  0.5873185657D+00  0.1000000000D+01
 s    1  1.00
  0.1876459225D+00  0.1000000000D+01
 p    3  1.00
  0.1357147023D+02 -0.5884811697D-01
  0.2925737287D+01 -0.3202462476D+00
  0.7992775075D+00 -0.7532822652D+00
 p    1  1.00
  0.2195434803D+00  0.1000000000D+01
 d    1  1.00
  0.1000000000D+01  0.1000000000D+01
  
  4 0
 s    5  1.00
  0.1712841585D+04 -0.5447799580D-02
  0.2576481268D+03 -0.4062717463D-01
  0.5845824585D+02 -0.1811196225D+00
  0.1619836791D+02 -0.4684397556D+00
  0.5005260081D+01 -0.4461684629D+00
 s    1  1.00
  0.5873185657D+00  0.1000000000D+01
 s    1  1.00
  0.1876459225D+00  0.1000000000D+01
 p    3  1.00
  0.1357147023D+02 -0.5884811697D-01
  0.2925737287D+01 -0.3202462476D+00
  0.7992775075D+00 -0.7532822652D+00
 p    1  1.00
  0.2195434803D+00  0.1000000000D+01
 d    1  1.00
  0.1000000000D+01  0.1000000000D+01
 
 
[MO]
 Sym=      1.1
 Ene=     -15.7527
 Spin= Alpha
 Occup=    2.000000
1 0.50506527966715
2 -0.017188588970216
3 0.004828493802457
4 -0.001189512228293
5 -0.001202566865025
6 -0.001177241101855
7 -0.001390523933335
8 -0.001392851230103
9 -0.001405093742780
10 0.000001265601432
11 0.000015979852738
12 -0.000017245454169
13 0.000431235423907
14 0.000417324842279
15 0.000422153831956
16 0.50512785321790
17 -0.017153180971864
18 0.004691207901782
19 0.001182541578661
20 0.001188128211775
21 -0.001194354022988
22 0.001327815784381
23 0.001327218927222
24 -0.001385908540048
25 0.000002786514086
26 0.000004092608286
27 -0.000006879122372
28 0.000424058486711
29 -0.000427130454557
30 -0.000418158042127
31 0.48203392984202
32 -0.016471136539026
33 0.004397349691460
34 0.001144157576549
35 -0.001136756118994
36 0.001137618592034
37 0.001342207954424
38 -0.001336182853598
39 0.001325979450585
40 0.000000816305092
41 -0.000004834103949
42 0.000004017798857
43 -0.000422428703480
44 0.000445643506859
45 -0.000436201682009
46 0.48998447571421
47 -0.016694266512471
48 0.004453235901622
49 -0.001157231168525
50 0.001161485928318
51 0.001149390817882
52 -0.001340211905106
53 0.001321960889428
54 0.001306319835933
55 -0.000005061336473
56 0.000001582603860
57 0.000003478732613
58 -0.000416647308825
59 -0.000439377760737
60 0.000435505726100
 Sym=      2.1
 Ene=     -15.7521
 Spin= Alpha
 Occup=    2.000000
1 -0.63851871531957
2 0.020981357843316
3 -0.016102143974259
4 0.001447083303216
5 0.001467016766009
6 0.001336682401930
7 0.003703280010307
8 0.003949478375173
9 0.001909197902270
10 0.000139935590301
11 0.000196195459521
12 -0.000336131049822
13 0.000597203865662
14 0.000067143787398
15 0.000114477433583
16 0.75091146245450
17 -0.024636489169570
18 0.018932136559401
19 0.001671480162050
20 0.001689514226850
21 -0.001625536751401
22 0.004076300644800
23 0.004309239189182
24 -0.002879800137574
25 -0.000086956805094
26 -0.000147338832239
27 0.000234295637333
28 -0.000546815685351
29 0.000170431392520
30 0.000227303592124
31 -0.10168865096562
32 0.003353049250878
33 -0.002556328918142
34 -0.000109551804086
35 0.000331336002502
36 -0.000227462723069
37 0.001165948724491
38 0.002098301563345
39 -0.000624418607236
40 -0.000477913751810
41 0.000445042451035
42 0.000032871300774
43 -0.000013600283791
44 -0.000412112091337
45 -0.000518378092000
46 -0.015900729750935
47 0.000518277658533
48 -0.000331543022664
49 0.000134407518595
50 0.000080215931973
51 -0.000052629019498
52 0.001561792080691
53 0.001701159940646
54 -0.000323134946395
55 0.000419860749567
56 -0.000495576734017
57 0.000075715984450
58 0.000063282162145
59 -0.000497362518688
60 -0.000415183057870
 Sym=      3.1
 Ene=     -15.7520
 Spin= Alpha
 Occup=    2.000000
1 0.45995755666663
2 -0.015090826757569
3 0.011709826517145
4 -0.000934011013474
5 -0.001050343064521
6 -0.001102724495258
7 -0.000834994711319
8 -0.002584087527464
9 -0.003496556515895
10 0.000409836606614
11 -0.000069942065541
12 -0.000339894541074
13 0.000141607581189
14 -0.000147373874559
15 -0.000624160450331
16 0.36651360999425
17 -0.012002397137473
18 0.009286508332443
19 0.000826366024011
20 0.000713375166694
21 -0.000910415933646
22 0.002000656497003
23 0.000259111699391
24 -0.003188520953349
25 -0.000050337639360
26 0.000436618305391
27 -0.000386280666031
28 0.000218237429009
29 0.000599724138117
30 0.000115125589743
31 -0.057293188926878
32 0.001880998506431
33 -0.001295631412024
34 -0.000082284648018
35 0.000056937978914
36 -0.000259591413220
37 0.000560616406328
38 -0.000810379686971
39 -0.002113100168837
40 -0.000228811279391
41 -0.000300893158526
42 0.000529704437917
43 0.000516457441581
44 0.000324597942223
45 -0.000248476169179
46 -0.79560071821549
47 0.026131746733737
48 -0.019950415322507
49 0.001744122232807
50 -0.001763544360974
51 -0.001818810862877
52 0.003472492677482
53 -0.003714254251869
54 -0.004648353769189
55 -0.000133294904116
56 -0.000069018844196
57 0.000202313748312
58 -0.000125201770335
59 -0.000402754171443
60 0.000464793200065
 Sym=      4.1
 Ene=     -15.7520
 Spin= Alpha
 Occup=    2.000000
1 -0.32852647658719
2 0.010766317169400
3 -0.008401554237369
4 0.000817029202966
5 0.000621039653233
6 0.000786501611211
7 0.002711487070712
8 -0.000076467965062
9 0.002308492698571
10 0.000305225708735
11 -0.000500577853049
12 0.000195352144314
13 -0.000035040022757
14 0.000660739231035
15 -0.000137279860320
16 -0.17014604242976
17 0.005569597327612
18 -0.004418970453183
19 -0.000256700558997
20 -0.000441502728067
21 0.000440585468200
22 0.000986206183190
23 -0.001799405682091
24 0.001775238789020
25 -0.000514272219981
26 0.000257034938863
27 0.000257237281118
28 -0.000173755658324
29 0.000180255679758
30 -0.000599623159723
31 0.85807417750536
32 -0.028219534500548
33 0.021612167105006
34 0.001956706264076
35 -0.001896221351576
36 0.001926682409680
37 0.004537410852969
38 -0.004126830983983
39 0.004142910827605
40 -0.000078746750669
41 0.000050438871910
42 0.000028307878758
43 0.000388475787270
44 -0.000413198901777
45 0.000282698867409
46 -0.33010560540998
47 0.010837744464469
48 -0.008508242232018
49 0.000804896518492
50 -0.000781625753131
51 -0.000620135402862
52 0.002721865867903
53 -0.002355799606630
54 0.000034508855393
55 0.000293889733082
56 0.000185468095406
57 -0.000479357828488
58 -0.000634350979661
59 0.000041693185441
60 -0.000146460393421
 Sym=      5.1
 Ene=      -1.6678
 Spin= Alpha
 Occup=    2.000000
1 0.13004333974501
2 0.26205667515849
3 0.070311055744087
4 0.078555621331679
5 0.078620592514038
6 0.078461211326018
7 -0.021833601016770
8 -0.022034703254754
9 -0.021635931000908
10 0.000001370385015
11 0.000182272726392
12 -0.000183643111408
13 0.013439843515837
14 0.013337433041593
15 0.013386498571099
16 0.12918006669994
17 0.26039947973865
18 0.069257371760366
19 -0.077406248656155
20 -0.077906487253855
21 0.078820091035179
22 0.021443267525378
23 0.021443262655743
24 -0.021655754894600
25 -0.000145781055129
26 0.000031295951692
27 0.000114485103438
28 0.013219822229610
29 -0.013385508302881
30 -0.013423742019794
31 0.13090572035592
32 0.26370888289779
33 0.071429331365522
34 -0.079691239633767
35 0.078243344350054
36 -0.079173199030122
37 0.022253743526408
38 -0.022024827838507
39 0.022248145560111
40 0.000149574375243
41 -0.000116099633283
42 -0.000033474741960
43 -0.013387926976653
44 0.013558902996789
45 -0.013350307935975
46 0.13003189971853
47 0.26203349281501
48 0.070330772086379
49 0.078540246951583
50 -0.079041713841719
51 -0.078023710866343
52 -0.021840495757269
53 0.021845491606143
54 0.021839970885684
55 0.000000119274562
56 0.000179957738796
57 -0.000180077013359
58 -0.013426199293109
59 -0.013350317451967
60 0.013386367685635
 Sym=      6.1
 Ene=      -1.0459
 Spin= Alpha
 Occup=    2.000000
1 -0.15955318297563
2 -0.33821995473396
3 -0.30786832705896
4 -0.029924228478880
5 0.10239260143135
6 -0.094460298003950
7 0.042951676302714
8 0.008861772347090
9 0.059967779049695
10 -0.003424360213254
11 0.016382443032025
12 -0.012958082818770
13 0.007101535380820
14 -0.014161148392285
15 -0.000035549055885
16 0.17102539740052
17 0.36242371264768
18 0.32975343737477
19 -0.034335842287181
20 0.095789022102092
21 0.082505630583639
22 0.046532286059785
23 0.012898277658279
24 -0.059910869395662
25 0.004051989283752
26 -0.015433290449765
27 0.011381301166013
28 -0.005739253421408
29 -0.013532018521427
30 0.000550399252712
31 -0.093521503376072
32 -0.19826261146064
33 -0.18092568094542
34 0.10792367732615
35 0.13942658277232
36 0.041947491256635
37 -0.049078062697583
38 -0.015631674571022
39 -0.031687160794238
40 -0.015686205025020
41 0.021279075874154
42 -0.005592870849133
43 -0.003136560758965
44 -0.016640455947080
45 -0.010141548266759
46 0.083403004236588
47 0.17670018242003
48 0.16163532542471
49 0.10069871331055
50 0.14295909597401
51 -0.053122491038368
52 -0.045008190637354
53 -0.018488382503926
54 0.032498048881829
55 0.014645504558054
56 -0.022102791476412
57 0.007457286918359
58 0.004077176482494
59 -0.017011184963643
60 -0.009228840765310
 Sym=      7.1
 Ene=      -1.0425
 Spin= Alpha
 Occup=    2.000000
1 0.043945491136398
2 0.093161714465715
3 0.085558292538818
4 -0.15633041702358
5 0.080801323810780
6 0.080148689812726
7 0.031303086642739
8 -0.030882061337876
9 -0.031157347501484
10 -0.023656216619641
11 0.011946711745228
12 0.011709504874413
13 -0.008019657901994
14 -0.007816078560624
15 0.017620185900632
16 -0.12114019726247
17 -0.25681568391480
18 -0.23493834988984
19 -0.11532900531162
20 0.12042723469823
21 -0.007440417692649
22 0.003506557688267
23 -0.058411640892681
24 0.029117282590709
25 0.017823824731696
26 -0.017414194435954
27 -0.000409630295742
28 -0.001251159944478
29 -0.010913969930719
30 0.014591695024242
31 -0.12056076968631
32 -0.25556536975631
33 -0.23554054828682
34 -0.11573748036388
35 -0.006473037672309
36 0.12214754093051
37 0.003216660000936
38 0.028623228078697
39 -0.059512725783861
40 0.018070494028647
41 -0.000407883066844
42 -0.017662610961803
43 -0.011069217316403
44 -0.001426874376211
45 0.014506261068056
46 0.19775706002199
47 0.41922308075841
48 0.38493068710614
49 -0.074711051752991
50 -0.048808874406029
51 -0.046706622273864
52 -0.024590989610929
53 0.057311929941600
54 0.056324220592523
55 -0.012235563420279
56 0.006407644710977
57 0.005827918709302
58 0.001686886335759
59 0.001774419320633
60 0.011475098283120
 Sym=      8.1
 Ene=      -1.0391
 Spin= Alpha
 Occup=    2.000000
1 -0.15905393706065
2 -0.33719989851237
3 -0.31225461399094
4 -0.024812290120012
5 -0.091893994704320
6 0.10516762545945
7 0.042735720770661
8 0.060358383234247
9 0.007778798475242
10 -0.003103631830703
11 -0.013291704846241
12 0.016395336676944
13 -0.013732906115875
14 0.007489564789827
15 0.000428244406537
16 -0.094617310451338
17 -0.20057396343538
18 -0.18525804675035
19 0.10622919738213
20 0.040491010065491
21 0.13742580625596
22 -0.049368567004086
23 -0.032097896133912
24 -0.015137277323040
25 -0.015414571892536
26 -0.005771617600884
27 0.021186189493420
28 -0.016461880922893
29 -0.002510749339543
30 -0.009704132373364
31 0.17092066916786
32 0.36247168710123
33 0.33581459406885
34 -0.032763879792601
35 0.081605029859090
36 0.099416976995197
37 0.047638572032572
38 -0.059776432525115
39 0.012218935068396
40 0.004204304755250
41 0.011412433555161
42 -0.015616738310412
43 -0.013436463468667
44 -0.006049289400121
45 0.000770503972028
46 0.081388048960082
47 0.17263879851924
48 0.15907021724456
49 0.10107694957894
50 -0.051673517342699
51 0.14621913133250
52 -0.044965358965460
53 0.031939784449725
54 -0.020760526221538
55 0.014721777242039
56 0.007373565591828
57 -0.022095342833868
58 -0.017031603610342
59 0.004374543352523
60 -0.009678261433656
 Sym=      9.1
 Ene=      -0.6941
 Spin= Alpha
 Occup=    2.000000
1 0.064210329521620
2 0.12875677094294
3 0.18424727945193
4 -0.16706999360063
5 -0.16944011279591
6 -0.16470996374992
7 0.080982323629304
8 0.082463788242271
9 0.079516116832591
10 0.000003396009532
11 -0.000472365756039
12 0.000468969746507
13 -0.021180156790670
14 -0.020372911194390
15 -0.020774452733062
16 0.064196490456044
17 0.12878403036379
18 0.18464249899743
19 0.16532004184036
20 0.16620085803099
21 -0.16614203840568
22 -0.080035024814179
23 -0.080272230564077
24 0.080101209850113
25 0.000126865959997
26 -0.000039705605632
27 -0.000087160354365
28 -0.020732048157204
29 0.020609328460995
30 0.020724232599586
31 0.064207595666485
32 0.12868986434614
33 0.18376719624547
34 0.16884337295455
35 -0.16796911155037
36 0.16798101827076
37 -0.081970746349292
38 0.081869311536094
39 -0.081740067020027
40 -0.000131054615422
41 0.000097935051574
42 0.000033119563848
43 0.020949347235626
44 -0.020834394425355
45 0.020834563971202
46 0.064207713160218
47 0.12874752437629
48 0.18423578119121
49 -0.16704346842646
50 0.16794612022192
51 0.16620294978093
52 0.080970578862215
53 -0.081226131130959
54 -0.080758195368738
55 0.000003263758211
56 -0.000167003530536
57 0.000163739772325
58 0.020892929011909
59 0.020663288102906
60 -0.020781593436228
 Sym=     10.1
 Ene=      -0.5781
 Spin= Alpha
 Occup=    2.000000
1 0.072138851975288
2 0.16738994251255
3 0.12578723145662
4 -0.041692255080356
5 -0.031793794078290
6 -0.29585444189896
7 0.048482051957640
8 0.043333149571779
9 0.18564453566300
10 0.011647778539264
11 0.012316464367756
12 -0.023964242907020
13 0.004078874662612
14 -0.008174020010593
15 -0.007409135314719
16 -0.11832905671999
17 -0.27486830698516
18 -0.20605461110352
19 -0.16561257653906
20 -0.16946878768845
21 0.26089010426253
22 0.13149950026080
23 0.13456814331963
24 -0.18346398595500
25 -0.004149581115728
26 -0.004257661600687
27 0.008407242716415
28 0.003293530494387
29 -0.007158094326570
30 -0.007712663676838
31 0.023748789350117
32 0.055025677526730
33 0.041588604746282
34 0.24596103924888
35 0.11072374842649
36 -0.015816926641397
37 -0.14161017949797
38 -0.051241273277815
39 0.000379098728626
40 -0.028423788471185
41 0.020586744157607
42 0.007837044313578
43 0.003468187965391
44 -0.008020624387840
45 -0.008322624760936
46 0.021922977855332
47 0.050790640099134
48 0.038717587877317
49 0.10563584117872
50 0.23464532411463
51 -0.022437704517052
52 -0.048960112136764
53 -0.13363145467629
54 0.004524554062712
55 0.020136269024761
56 -0.028198889569074
57 0.008062620544313
58 0.003590380364579
59 -0.007707007142996
60 -0.006955804434001
 Sym=     11.1
 Ene=      -0.5770
 Spin= Alpha
 Occup=    2.000000
1 0.070501176745213
2 0.16378128173446
3 0.12212878872491
4 -0.29441663232645
5 -0.028724945446436
6 -0.033164970477340
7 0.18493349446745
8 0.041396461071318
9 0.043373226005422
10 -0.024327488084571
11 0.011801835963575
12 0.012525652120996
13 -0.007092914624701
14 -0.007888666973740
15 0.004337288124784
16 0.026143035940362
17 0.060729507132434
18 0.045615388935027
19 -0.012965159290684
20 0.23690829414333
21 0.095506814930780
22 -0.002645179057694
23 -0.13641677379627
24 -0.041992455028207
25 0.007720704553600
26 -0.027696623590074
27 0.019975919036474
28 -0.006985780435138
29 -0.006971211438743
30 0.003865839003720
31 0.021865938390022
32 0.050798037585805
33 0.037523039870934
34 -0.022691928834727
35 0.11336861385514
36 0.25017394335554
37 0.004310405148596
38 -0.053520135124892
39 -0.14439701022801
40 0.008592650783367
41 0.020178895275452
42 -0.028771546058819
43 -0.008729845988176
44 -0.008415284325412
45 0.003671663651605
46 -0.11850135717508
47 -0.27532102025037
48 -0.20516513446401
49 0.25604687148279
50 -0.18198909683849
51 -0.16059175484165
52 -0.18158245594937
53 0.14257164503881
54 0.12910283711438
55 0.007903014264644
56 -0.003069357120948
57 -0.004833657143696
58 -0.008048068784438
59 -0.006374082120758
60 0.003481983115578
 Sym=     12.1
 Ene=      -0.5758
 Spin= Alpha
 Occup=    2.000000
1 0.070391233781477
2 0.16375536639002
3 0.12092655058882
4 -0.025327079299321
5 -0.29283236204890
6 -0.032832633874197
7 0.039729266642092
8 0.18467698914671
9 0.043559476549031
10 0.012397498559167
11 -0.024392925041196
12 0.011995426482029
13 -0.006882658598068
14 0.004327825244169
15 -0.007496630440283
16 0.023719202316645
17 0.055248909257268
18 0.040619170775687
19 0.24075710559982
20 -0.018722501424464
21 0.10156743049696
22 -0.13887959369118
23 0.000953677601776
24 -0.046287729146284
25 -0.028033088460322
26 0.008108770220402
27 0.019924318239920
28 -0.007454803095561
29 0.004001770744826
30 -0.007469929702132
31 -0.11823225074366
32 -0.27475641891850
33 -0.20339077405845
34 -0.17488733934387
35 0.25444989964203
36 -0.17021162479752
37 0.13890133655876
38 -0.18144311770153
39 0.13544665259071
40 -0.003891705755654
41 0.007862562812712
42 -0.003970857057058
43 -0.007355453553027
44 0.003436124286108
45 -0.006808321759893
46 0.024634192019541
47 0.057386768286492
48 0.041811186954718
49 0.10686420377276
50 -0.014634439476067
51 0.25026652108381
52 -0.048934902714970
53 -0.001546957164654
54 -0.14552869144603
55 0.020276834705638
56 0.008010165917918
57 -0.028287000623556
58 -0.008072353217103
59 0.003898072035748
60 -0.008371095124713
 Sym=     13.1
 Ene=      -0.5497
 Spin= Alpha
 Occup=    2.000000
1 0.002080181987934
2 0.005464388423204
3 0.001288299536691
4 0.18593806204166
5 -0.25825148293499
6 0.066012588801097
7 -0.12216946468276
8 0.17241907391149
9 -0.042639998770741
10 0.006648354156490
11 -0.009072131111979
12 0.002423776955489
13 -0.006965693078333
14 0.025994222725712
15 -0.019170225425796
16 -0.001233259480668
17 -0.002727416317387
18 -0.002022094266147
19 -0.19669027695148
20 0.26361289887453
21 0.074893437508883
22 0.13027668649643
23 -0.17375081301293
24 -0.049692270735460
25 0.007252899650491
26 -0.010295918670254
27 0.003043019019764
28 -0.007108005682532
29 -0.026507933571475
30 0.019318018275417
31 0.001173895562082
32 0.003229494232045
33 0.000336642694996
34 -0.18692476890797
35 -0.25605340227344
36 -0.062036850132390
37 0.12338230201211
38 0.17094906922970
39 0.040578240143266
40 0.006674021682882
41 -0.008330074172429
42 0.001656052489547
43 0.007145670601988
44 0.025865993146240
45 0.019452694959728
46 -0.002243604060386
47 -0.005203121554354
48 -0.003122812980251
49 0.19759510704520
50 0.25980029466913
51 -0.076273737760646
52 -0.13151025927840
53 -0.17120760528369
54 0.051202570484161
55 0.007251474853461
56 -0.010191272820205
57 0.002939797966744
58 0.006797788789287
59 -0.026514079936249
60 -0.019320992422862
 Sym=     14.1
 Ene=      -0.5444
 Spin= Alpha
 Occup=    2.000000
1 0.001754616948485
2 0.004713322636053
3 0.000710292336859
4 -0.19406955026913
5 -0.072820410631885
6 0.26252586809244
7 0.13093878744144
8 0.049811314387709
9 -0.17459091028165
10 -0.006895418148241
11 -0.002567097590342
12 0.009462515738583
13 -0.026450092589339
14 0.007115299292585
15 0.019262473921229
16 0.001002396757498
17 0.002832075947508
18 0.000080953465278
19 0.19387973060975
20 0.076293761734970
21 0.26422135012701
22 -0.13020704734565
23 -0.051606964999018
24 -0.17569823984838
25 -0.006932342181426
26 -0.003225494454493
27 0.010157836635919
28 -0.026572774061049
29 -0.006884849039445
30 -0.018977493222909
31 -0.001134934899240
32 -0.002489097225378
33 -0.001884036048853
34 0.18499003942650
35 -0.065359803457931
36 -0.25761968478277
37 -0.12385075196930
38 0.043667176037683
39 0.17321303281256
40 -0.006398296917737
41 -0.002015073949746
42 0.008413370867483
43 0.026040832689301
44 0.006955241085164
45 -0.019127974519247
46 -0.001815286277950
47 -0.004205242572213
48 -0.002411321113936
49 -0.18474525460370
50 0.064073917084680
51 -0.26046855525335
52 0.12313789751985
53 -0.042293564719464
54 0.17509349853235
55 -0.006418803072753
56 -0.002052046122992
57 0.008470849195745
58 0.026027006660319
59 -0.007242195091781
60 0.019091387094423
 Sym=     15.1
 Ene=       0.1840
 Spin= Alpha
 Occup=    0.000000
1 -0.003961981917514
2 -0.009408025260538
3 -0.029961144710474
4 -0.25766872404170