[Molden Format]
[Title]
 Molden file created by orca_2mkl for BaseName=/home/vladimir/git/molden2qmc/test/N4/ORCA/RHF/cc-pVTZ/./N4

[Atoms] AU
N    1   7          0.9826575896         1.0015548510         0.9637603283 
N    2   7         -0.9826575896        -0.9826575896         0.9826575896 
N    3   7         -0.9826575896         0.9826575896        -0.9826575896 
N    4   7          0.9826575896        -0.9826575896        -0.9826575896 
[GTO]
  1 0
s   8 1.0 
    11420.0000000000         0.4212093071
     1712.0000000000         0.7848615221
      389.3000000000         1.3273975977
      110.0000000000         1.9989872282
       35.5700000000         2.4748758656
       12.5400000000         2.1060076679
        4.6440000000         0.8013747684
        0.5118000000        -0.0037531799
s   8 1.0 
    11420.0000000000        -0.1565041181
     1712.0000000000        -0.2934466844
      389.3000000000        -0.4992401207
      110.0000000000        -0.7752671946
       35.5700000000        -1.0288246585
       12.5400000000        -1.0842399649
        4.6440000000        -0.6722979466
        0.5118000000         0.4472128530
s   1 1.0 
        1.2930000000         0.8641895012
s   1 1.0 
        0.1787000000         0.1958860490
p   3 1.0 
       26.6300000000         3.4325416128
        5.9480000000         3.2969151869
        1.7420000000         2.3120245012
p   1 1.0 
        0.5550000000         0.6828201314
p   1 1.0 
        0.1725000000         0.1584624850
d   1 1.0 
        1.6540000000         6.8771297418
d   1 1.0 
        0.4690000000         0.7577440909
f   1 1.0 
        1.0930000000         6.9645882147

  2 0
s   8 1.0 
    11420.0000000000         0.4212093071
     1712.0000000000         0.7848615221
      389.3000000000         1.3273975977
      110.0000000000         1.9989872282
       35.5700000000         2.4748758656
       12.5400000000         2.1060076679
        4.6440000000         0.8013747684
        0.5118000000        -0.0037531799
s   8 1.0 
    11420.0000000000        -0.1565041181
     1712.0000000000        -0.2934466844
      389.3000000000        -0.4992401207
      110.0000000000        -0.7752671946
       35.5700000000        -1.0288246585
       12.5400000000        -1.0842399649
        4.6440000000        -0.6722979466
        0.5118000000         0.4472128530
s   1 1.0 
        1.2930000000         0.8641895012
s   1 1.0 
        0.1787000000         0.1958860490
p   3 1.0 
       26.6300000000         3.4325416128
        5.9480000000         3.2969151869
        1.7420000000         2.3120245012
p   1 1.0 
        0.5550000000         0.6828201314
p   1 1.0 
        0.1725000000         0.1584624850
d   1 1.0 
        1.6540000000         6.8771297418
d   1 1.0 
        0.4690000000         0.7577440909
f   1 1.0 
        1.0930000000         6.9645882147

  3 0
s   8 1.0 
    11420.0000000000         0.4212093071
     1712.0000000000         0.7848615221
      389.3000000000         1.3273975977
      110.0000000000         1.9989872282
       35.5700000000         2.4748758656
       12.5400000000         2.1060076679
        4.6440000000         0.8013747684
        0.5118000000        -0.0037531799
s   8 1.0 
    11420.0000000000        -0.1565041181
     1712.0000000000        -0.2934466844
      389.3000000000        -0.4992401207
      110.0000000000        -0.7752671946
       35.5700000000        -1.0288246585
       12.5400000000        -1.0842399649
        4.6440000000        -0.6722979466
        0.5118000000         0.4472128530
s   1 1.0 
        1.2930000000         0.8641895012
s   1 1.0 
        0.1787000000         0.1958860490
p   3 1.0 
       26.6300000000         3.4325416128
        5.9480000000         3.2969151869
        1.7420000000         2.3120245012
p   1 1.0 
        0.5550000000         0.6828201314
p   1 1.0 
        0.1725000000         0.1584624850
d   1 1.0 
        1.6540000000         6.8771297418
d   1 1.0 
        0.4690000000         0.7577440909
f   1 1.0 
        1.0930000000         6.9645882147

  4 0
s   8 1.0 
    11420.0000000000         0.4212093071
     1712.0000000000         0.7848615221
      389.3000000000         1.3273975977
      110.0000000000         1.9989872282
       35.5700000000         2.4748758656
       12.5400000000         2.1060076679
        4.6440000000         0.8013747684
        0.5118000000        -0.0037531799
s   8 1.0 
    11420.0000000000        -0.1565041181
     1712.0000000000        -0.2934466844
      389.3000000000        -0.4992401207
      110.0000000000        -0.7752671946
       35.5700000000        -1.0288246585
       12.5400000000        -1.0842399649
        4.6440000000        -0.6722979466
        0.5118000000         0.4472128530
s   1 1.0 
        1.2930000000         0.8641895012
s   1 1.0 
        0.1787000000         0.1958860490
p   3 1.0 
       26.6300000000         3.4325416128
        5.9480000000         3.2969151869
        1.7420000000         2.3120245012
p   1 1.0 
        0.5550000000         0.6828201314
p   1 1.0 
        0.1725000000         0.1584624850
d   1 1.0 
        1.6540000000         6.8771297418
d   1 1.0 
        0.4690000000         0.7577440909
f   1 1.0 
        1.0930000000         6.9645882147

[5D]
[9G]
[MO]
 Sym=     1a
 Ene= -1.57508761817499E+01
 Spin= Alpha
 Occup= 2.000000
  1       0.491874632426
  2       0.000594803209
  3       0.020539758669
  4       0.000781826802
  5      -0.001014463679
  6      -0.001018958817
  7      -0.001009614564
  8       0.000229306522
  9       0.000258018299
 10       0.000207683796
 11      -0.000172475996
 12      -0.000168777342
 13      -0.000174615565
 14       0.000003949897
 15       0.000152715394
 16       0.000145944074
 17       0.000002889288
 18       0.000140362496
 19       0.000007844691
 20      -0.000031585040
 21      -0.000043094504
 22       0.000006025794
 23      -0.000051484638
 24      -0.000015482340
 25       0.000007592892
 26       0.000008366629
 27      -0.000001452464
 28       0.000031491646
 29       0.000013324826
 30      -0.000011952201
 31       0.465957978175
 32       0.000639513040
 33       0.019413494319
 34       0.000834485398
 35       0.000947289088
 36       0.000949675098
 37      -0.000961338026
 38      -0.000174112051
 39      -0.000147020528
 40       0.000155758905
 41       0.000189877989
 42       0.000196544294
 43      -0.000195408993
 44       0.000003969579
 45      -0.000141006040
 46      -0.000146502568
 47      -0.000002904243
 48       0.000138175177
 49      -0.000000927116
 50       0.000020417614
 51       0.000006267467
 52      -0.000008290043
 53      -0.000013888219
 54      -0.000011272889
 55      -0.000009987845
 56      -0.000007123692
 57       0.000003938095
 58       0.000027432975
 59      -0.000006426956
 60       0.000009281250
 61       0.511630033147
 62       0.000559664261
 63       0.021400258015
 64       0.000741119110
 65       0.001068298033
 66      -0.001052810142
 67       0.001065425281
 68      -0.000273771088
 69       0.000297220305
 70      -0.000294220943
 71       0.000159018568
 72      -0.000152025809
 73       0.000154320191
 74       0.000000413387
 75       0.000154705316
 76      -0.000145022108
 77       0.000005601233
 78      -0.000149444755
 79      -0.000004086680
 80      -0.000061023058
 81       0.000071827403
 82       0.000004902202
 83       0.000061458223
 84       0.000017824507
 85      -0.000012673541
 86       0.000013452219
 87       0.000000941821
 88       0.000035138376
 89      -0.000013122334
 90      -0.000012570990
 91       0.485752918732
 92       0.000605827404
 93       0.020275071000
 94       0.000795005851
 95      -0.001000626718
 96       0.001003162152
 97       0.000997949761
 98       0.000216915083
 99      -0.000190015290
100      -0.000237614452
101      -0.000176765338
102       0.000183292851
103       0.000171889003
104      -0.000004486033
105      -0.000140304934
106       0.000145787316
107      -0.000002919817
108      -0.000150220698
109      -0.000011833753
110       0.000048969663
111      -0.000034818876
112      -0.000008150253
113       0.000024436135
114       0.000013962134
115       0.000014255853
116      -0.000011396935
117      -0.000003979971
118       0.000031034278
119       0.000007172473
120       0.000009873329
 Sym=     1a
 Ene= -1.57499676559350E+01
 Spin= Alpha
 Occup= 2.000000
  1      -0.284000250577
  2       0.000551974342
  3      -0.012249350906
  4       0.000655104686
  5       0.000634192863
  6       0.000630531176
  7       0.000627616012
  8      -0.001347264534
  9      -0.000027868693
 10      -0.001049781025
 11      -0.000406068485
 12      -0.000033802642
 13      -0.000321376852
 14       0.000037144473
 15       0.000105319612
 16      -0.000126952175
 17       0.000116380440
 18      -0.000075690301
 19       0.000124725147
 20       0.000747944175
 21      -0.000026116848
 22       0.000402944433
 23       0.000145559731
 24       0.000035408811
 25      -0.000145624319
 26       0.000019298304
 27      -0.000202664922
 28      -0.000036237526
 29       0.000067579992
 30       0.000047898390
 31      -0.152664800745
 32       0.000271438144
 33      -0.006574762791
 34       0.000318390075
 35      -0.000328114713
 36      -0.000341249517
 37       0.000344224124
 38      -0.000409791295
 39       0.000900545325
 40      -0.000750710804
 41      -0.000110859658
 42       0.000264221301
 43      -0.000224789881
 44       0.000048445308
 45       0.000105764148
 46      -0.000124269190
 47      -0.000111899986
 48      -0.000077344904
 49       0.000178498410
 50       0.000143752021
 51      -0.000639145633
 52      -0.000398834363
 53      -0.000057106594
 54       0.000021638254
 55      -0.000014394484
 56       0.000158923203
 57       0.000205346791
 58      -0.000016306727
 59       0.000017389389
 60       0.000094498325
 61       0.817089021600
 62      -0.001683277427
 63       0.035326459077
 64      -0.002018179614
 65       0.001843493002
 66      -0.001821682521
 67       0.001835459127
 68      -0.002555507197
 69       0.002384487060
 70      -0.002257505123
 71      -0.000820360612
 72       0.000773309052
 73      -0.000732897918
 74       0.000023320117
 75       0.000096823906
 76      -0.000119881232
 77      -0.000010160323
 78      -0.000069858776
 79       0.000082059012
 80      -0.000859146560
 81       0.000765012827
 82      -0.000048464087
 83       0.000938195116
 84       0.000094028767
 85      -0.000039105518
 86       0.000021387009
 87      -0.000022087508
 88       0.000087184401
 89      -0.000090191084
 90      -0.000102021917
 91      -0.426749704238
 92       0.000812412458
 93      -0.018417397702
 94       0.000963776933
 95       0.000956501422
 96      -0.000957892272
 97      -0.000943038818
 98      -0.001638762989
 99       0.001498968699
100       0.000473850086
101      -0.000504342473
102       0.000463761193
103       0.000166218234
104      -0.000107170938
105       0.000103925087
106      -0.000128748779
107       0.000012321301
108      -0.000075009774
109      -0.000386256065
110      -0.000252816618
111       0.000168923050
112       0.000041215740
113      -0.000865786514
114      -0.000037957422
115       0.000093433368
116      -0.000112310660
117       0.000021966677
118      -0.000045863570
119      -0.000141589335
120      -0.000153138858
 Sym=     1a
 Ene= -1.57499491294089E+01
 Spin= Alpha
 Occup= 2.000000
  1       0.786219376796
  2      -0.001575842232
  3       0.033970874056
  4      -0.001884178706
  5      -0.001757791657
  6      -0.001775765160
  7      -0.001746916856
  8       0.001999853491
  9       0.002528203648
 10       0.002311635116
 11       0.000651704555
 12       0.000804912881
 13       0.000738350731
 14      -0.000006134449
 15       0.000133851537
 16       0.000043859787
 17       0.000044860139
 18       0.000101383677
 19      -0.000006215148
 20      -0.000673036684
 21      -0.000981366847
 22       0.000167319440
 23      -0.000791030128
 24      -0.000094779566
 25       0.000028300936
 26       0.000093657745
 27      -0.000081725001
 28       0.000084340809
 29       0.000088750184
 30      -0.000041086601
 31      -0.224144335759
 32       0.000410841074
 33      -0.009674539148
 34       0.000487049779
 35      -0.000501313997
 36      -0.000507693713
 37       0.000495385628
 38       0.000738183879
 39       0.001257702620
 40       0.000113462548
 41       0.000230819651
 42       0.000377830686
 43       0.000019227980
 44      -0.000110209975
 45       0.000137600632
 46       0.000048085111
 47      -0.000045167353
 48       0.000102228149
 49      -0.000397006423
 50       0.000148413524
 51      -0.000155937785
 52      -0.000161758362
 53       0.000677084713
 54       0.000015612044
 55      -0.000155966797
 56      -0.000089713992
 57       0.000080150093
 58      -0.000024827946
 59       0.000159367360
 60      -0.000112066765
 61      -0.046526535787
 62       0.000099218554
 63      -0.002003204243
 64       0.000119279454
 65      -0.000103313697
 66       0.000095724962
 67      -0.000105952425
 68       0.000388763347
 69       0.000697407268
 70       0.000707195155
 71       0.000112660663
 72       0.000192116543
 73       0.000206118200
 74       0.000084572323
 75       0.000141443522
 76       0.000050439547
 77       0.000093761845
 78       0.000107803752
 79       0.000296934364
 80       0.000534430525
 81       0.000103932880
 82       0.000326392914
 83       0.000299973174
 84      -0.000013564571
 85       0.000172998236
 86      -0.000035829874
 87       0.000164406848
 88      -0.000004598915
 89      -0.000126916382
 90      -0.000037054931
 91      -0.532164981127
 92       0.001046906876
 93      -0.022983195662
 94       0.001249993777
 95       0.001183763903
 96      -0.001197409238
 97      -0.001188609307
 98      -0.000880436741
 99       0.001955594699
100       0.001747894344
101      -0.000301510579
102       0.000608806792
103       0.000550071952
104       0.000031625074
105       0.000136508699
106       0.000050034105
107      -0.000092441574
108       0.000104922194
109       0.000107129845
110      -0.000297212796
111       0.000933038314
112      -0.000331975062
113      -0.000407213392
114      -0.000068487912
115      -0.000008303851
116       0.000145987850
117      -0.000168213509
118      -0.000057497259
119      -0.000058961255
120       0.000033917903
 Sym=     1a
 Ene= -1.57499211581389E+01
 Spin= Alpha
 Occup= 2.000000
  1       0.117310495523
  2      -0.000245124630
  3       0.005085539779
  4      -0.000296584992
  5      -0.000273925981
  6      -0.000271600548
  7      -0.000254772712
  8       0.000931054608
  9       0.000565282295
 10      -0.000447374168
 11       0.000284962239
 12       0.000179404931
 13      -0.000115499568
 14       0.000114255723
 15       0.000052674746
 16       0.000117544151
 17      -0.000030599695
 18      -0.000124583287
 19       0.000417508549
 20       0.000006430345
 21       0.000229938008
 22      -0.000109238489
 23      -0.000610549971
 24       0.000003276280
 25      -0.000112522488
 26      -0.000162864241
 27       0.000059211516
 28       0.000007214188
 29       0.000120585216
 30      -0.000149004119
 31      -0.814775970025
 32       0.001576046013
 33      -0.035170970604
 34       0.001878289462
 35      -0.001809668529
 36      -0.001811205126
 37       0.001831019350
 38       0.002422039928
 39       0.002058210338
 40      -0.002486348179
 41       0.000764713019
 42       0.000662933162
 43      -0.000782571456
 44       0.000019080451
 45       0.000052131555
 46       0.000118123519
 47       0.000031378363
 48      -0.000122236150
 49       0.000081170212
 50      -0.000991326339
 51      -0.000770182521
 52       0.000106526479
 53       0.000737082379
 54       0.000096219392
 55       0.000109162661
 56       0.000059351889
 57      -0.000057824181
 58      -0.000089628315
 59       0.000036463075
 60      -0.000065579737
 61       0.151360486667
 62      -0.000335963988
 63       0.006557729124
 64      -0.000408129013
 65       0.000336073422
 66      -0.000340945477
 67       0.000348404503
 68       0.000325094610
 69       0.000654486513
 70      -0.001065165832
 71       0.000070729669
 72       0.000207945202
 73      -0.000328510507
 74      -0.000088200052
 75       0.000050868375
 76       0.000123338080
 77       0.000084711619
 78      -0.000121541083
 79      -0.000315072456
 80      -0.000054255621
 81       0.000640173428
 82       0.000297434882
 83      -0.000193147751
 84       0.000027952384
 85      -0.000054917484
 86       0.000185005495
 87       0.000153038189
 88       0.000016450842
 89       0.000034618662
 90       0.000117157699
 91       0.503218245111
 92      -0.001038393903
 93       0.021755808650
 94      -0.001248811993
 95      -0.001131226353
 96       0.001124877095
 97       0.001128277578
 98       0.001796853799
 99      -0.000819238122
100      -0.001832048884
101       0.000569982599
102      -0.000293996616
103      -0.000580607477
104      -0.000052285741
105       0.000060008490
106       0.000113168908
107      -0.000083962345
108      -0.000120081345
109      -0.000180245068
110       0.000929383436
111      -0.000343348501
112      -0.000295293701
113       0.000320712230
114       0.000064784736
115       0.000164553416
116      -0.000033977316
117      -0.000153231741
118       0.000054936352
119      -0.000047750586
120       0.000034695917
 Sym=     1a
 Ene= -1.65347302700332E+00
 Spin= Alpha
 Occup= 2.000000
  1      -0.008528154233
  2       0.227229796281
  3       0.053806030960
  4       0.061128372233
  5      -0.037001204614
  6      -0.036955469742
  7      -0.037028357054
  8      -0.051349232945
  9      -0.051407413950
 10      -0.051274735525
 11      -0.008872511938
 12      -0.008914657078
 13      -0.008828676452
 14      -0.000010469665
 15       0.004639904145
 16       0.004589960408
 17      -0.000003238545
 18       0.004542515545
 19      -0.000113613999
 20       0.009553847555
 21       0.009541192285
 22      -0.000063430703
 23       0.009530512453
 24       0.001768461669
 25      -0.001079306864
 26      -0.001036335272
 27      -0.000017879135
 28      -0.001136506241
 29      -0.001337920332
 30       0.001311639790
 31      -0.008457422657
 32       0.225726093202
 33       0.053483041435
 34       0.060703155224
 35       0.036425665132
 36       0.036673216150
 37      -0.037164644739
 38       0.050597046982
 39       0.050907568259
 40      -0.051508379950
 41       0.008737438027
 42       0.008788149874
 43      -0.008862968789
 44       0.000070415468
 45      -0.004604633469
 46      -0.004624492322
 47      -0.000042141956
 48       0.004489022720
 49       0.000092523459
 50      -0.009500380801
 51      -0.009543941440
 52      -0.000073354974
 53       0.009349946206
 54       0.001720672268
 55       0.001079886401
 56       0.001076102286
 57       0.000006813218
 58      -0.001136404615
 59       0.001341098309
 60      -0.001292105864
 61      -0.008596525743
 62       0.228736294568
 63       0.054126986711
 64       0.061571292400
 65       0.037564075753
 66      -0.036807231028
 67       0.037307610050
 68       0.052097556435
 69      -0.051166729950
 70       0.051776788077
 71       0.009012612282
 72      -0.008882843806
 73       0.008960227180
 74      -0.000002648644
 75       0.004691185670
 76      -0.004552693725
 77       0.000083788508
 78      -0.004571944600
 79      -0.000019071842
 80       0.009736309830
 81      -0.009539975343
 82       0.000120083691
 83      -0.009583115977
 84      -0.001759872608
 85       0.001076347715
 86      -0.001046939280
 87       0.000060348394
 88      -0.001133032534
 89       0.001337411694
 90       0.001362021952
 91      -0.008525933459
 92       0.227211822896
 93       0.053801030410
 94       0.061132810885
 95      -0.036990731717
 96       0.037238106965
 97       0.036734247343
 98      -0.051342148597
 99       0.051652767243
100       0.051021642012
101      -0.008873643564
102       0.008924827469
103       0.008821766967
104      -0.000074929124
105      -0.004569844876
106       0.004588028515
107      -0.000042795314
108      -0.004608975806
109      -0.000130134691
110      -0.009498913559
111       0.009540443394
112      -0.000074331964
113      -0.009585632317
114      -0.001761322362
115      -0.001042620421
116       0.001004369791
117      -0.000026930925
118      -0.001135390749
119      -0.001367599505
120      -0.001343131205
 Sym=     1a
 Ene= -1.04470637167605E+00
 Spin= Alpha
 Occup= 2.000000
  1      -0.001498881221
  2      -0.306413032457
  3      -0.077824872199
  4      -0.214784439477
  5       0.008997947638
  6      -0.057794194163
  7       0.040885448687
  8       0.022695444966
  9      -0.067911201506
 10       0.066045237994
 11       0.012968522369
 12      -0.010276063731
 13       0.024237533716
 14      -0.005014516215
 15      -0.004953900104
 16       0.001355498763
 17      -0.004498574900
 18       0.004441281029
 19      -0.009988605116
 20      -0.014621159227
 21      -0.001102837616
 22      -0.008950438524
 23       0.005526820592
 24      -0.000061083922
 25       0.002716253238
 26       0.001421635809
 27       0.002153879719
 28      -0.000349683529
 29      -0.001721557589
 30      -0.000107888470
 31       0.001605405890
 32       0.327990031794
 33       0.083312605198
 34       0.230069816497
 35       0.010713346515
 36      -0.054943743256
 37      -0.034476273630
 38       0.025840347924
 39      -0.063422991471
 40      -0.058334044105
 41       0.014304600410
 42      -0.008623198229
 43      -0.022908220552
 44       0.004384049960
 45      -0.004502352859
 46       0.001712659504
 47       0.004388140859
 48      -0.003959088715
 49       0.008845068758
 50      -0.014120502219
 51      -0.000642639581
 52       0.008782949565
 53      -0.004249147283
 54       0.000082695152
 55       0.002497112956
 56       0.001205459648
 57      -0.002121408934
 58       0.000423921902
 59      -0.001518343538
 60      -0.000258128848
 61      -0.000896193633
 62      -0.180706380020
 63      -0.045875769705
 64      -0.126717926657
 65      -0.050101176627
 66      -0.073521636152
 67      -0.017516953189
 68      -0.074331693276
 69      -0.093705784153
 70      -0.029995744547
 71      -0.023387109744
 72      -0.019877295866
 73      -0.011940984074
 74      -0.002197633869
 75      -0.006564154353
 76      -0.005188058083
 77      -0.008236070323
 78      -0.002163248227
 79      -0.004377752493
 80      -0.016541870171
 81      -0.008864045700
 82      -0.016506828975
 83      -0.002283265237
 84       0.000095114173
 85      -0.002137765893
 86      -0.000280707291
 87      -0.003988347652
 88      -0.000301275671
 89       0.002004354558
 90      -0.001311459256
 91       0.000817526890
 92       0.161751971642
 93       0.041047463315
 94       0.113682872245
 95      -0.046945217048
 96      -0.074865081055
 97       0.023373041701
 98      -0.069500945783
 99      -0.096154197318
100       0.037423498892
101      -0.021755354223
102      -0.020882434149
103       0.013477693920
104       0.002903891867
105      -0.006739180571
106      -0.004750031911
107       0.008172277217
108       0.002500472289
109       0.005823692172
110      -0.016798671104
111      -0.008167281291
112       0.016387297569
113       0.003252704548
114       0.000010628451
115      -0.002343352189
116      -0.000005614084
117       0.003930755658
118       0.000199695226
119       0.002114741844
120      -0.001224819918
 Sym=     1a
 Ene= -1.04133075654898E+00
 Spin= Alpha
 Occup= 2.000000
  1       0.000454384291
  2       0.086778227433
  3       0.022041100134
  4       0.061271665244
  5       0.079987781978
  6      -0.038667548094
  7      -0.038289959972
  8       0.105783999729
  9      -0.055590910761
 10      -0.055179570608
 11       0.025389559749
 12      -0.016393163903
 13      -0.016456605058
 14       0.004475728126
 15      -0.003808403128
 16       0.007332741441
 17      -0.007921677294
 18      -0.003854838395
 19       0.009020326657
 20      -0.007122702780
 21       0.017104609156
 22      -0.015944769975
 23      -0.007242771861
 24      -0.000220129541
 25      -0.000564612447
 26      -0.002820099756
 27       0.003828038910
 28       0.000113608889
 29      -0.000658829361
 30      -0.002565561287
 31      -0.001195834933
 32      -0.233603904202
 33      -0.059375091596
 34      -0.164738150895
 35       0.062714061482
 36      -0.055244542233
 37      -0.000753529948
 38       0.077223774695
 39      -0.083273241383
 40       0.007139652124
 41       0.014559826000
 42      -0.027060582665
 43       0.007429273348
 44      -0.000212024734
 45      -0.005776314990
 46       0.005379292887
 47       0.007825401302
 48       0.000508307044
 49      -0.000451040450
 50      -0.009488484358
 51       0.014780740438
 52       0.015750880451
 53      -0.002021149929
 54      -0.000300802309
 55       0.000891061089
 56      -0.001432351874
 57      -0.003812827142
 58      -0.000297879262
 59      -0.001767341684
 60      -0.001424230522
 61      -0.001240607495
 62      -0.232517067311
 63      -0.059019908472
 64      -0.164324983878
 65       0.062936748748
 66      -0.001150287981
 67      -0.056054054140
 68       0.077424223989
 69       0.006565969793
 70      -0.084440285397
 71       0.014535067664
 72       0.007151405774
 73      -0.027477565028
 74      -0.006773510207
 75       0.000413693507
 76       0.005361010435
 77       0.004133858482
 78      -0.005816647071
 79      -0.013656620424
 80      -0.002158551235
 81       0.014769727231
 82       0.008305842951
 83      -0.009543081242
 84      -0.000243257866
 85      -0.002025468233
 86       0.003190554602
 87       0.001980200453
 88      -0.000317415975
 89       0.000418984784
 90       0.002114031413
 91       0.001982689993
 92       0.379347034749
 93       0.096354326300
 94       0.267801330825
 95       0.045651480264
 96       0.016701039430
 97       0.015720833606
 98       0.048845194399
 99       0.036023993544
100       0.034610796069
101       0.003698168821
102       0.018358688657
103       0.017912920888
104       0.002282964127
105       0.002441054101
106       0.003405040323
107      -0.004167774148
108       0.002408404779
109       0.004559814779
110       0.000294213472
111       0.012443016330
112      -0.008413728603
113       0.000186408780
114      -0.000353725329
115      -0.000547039518
116       0.001706583133
117      -0.002023694833
118       0.000499777909
119      -0.000707886779
120       0.000996299952
 Sym=     1a
 Ene= -1.03800420716400E+00
 Spin= Alpha
 Occup= 2.000000
  1       0.001699288815
  2       0.305990246539
  3       0.077726169480
  4       0.217531762337
  5      -0.006275641998
  6      -0.039439048946
  7       0.059145158218
  8      -0.019483961295
  9      -0.064641533230
 10       0.069776170828
 11      -0.012459101560
 12      -0.024152883864
 13       0.010965935692
 14      -0.006249438512
 15      -0.004575270561
 16      -0.001529753150
 17      -0.002230735135
 18       0.004622804027
 19      -0.012729587456
 20      -0.005965229013
 21       0.000745372388
 22      -0.004537478769
 23       0.014334500901
 24       0.000899566566
 25       0.002310747447
 26       0.001713153498
 27       0.001036476834
 28       0.000455998555
 29      -0.002162603255
 30       0.001225429004
 31       0.001002887597
 32       0.182974805129
 33       0.046500044850
 34       0.130013486021
 35       0.049177997714
 36       0.016661586744
 37       0.072641087433
 38       0.073439491034
 39       0.029212366478
 40       0.092423152212
 41       0.023548340121
 42       0.012019191932
 43       0.019808942149
 44      -0.008115665987
 45       0.001923060376
 46       0.005031164738
 47       0.002116173425
 48       0.006350733994
 49      -0.016429130668
 50       0.001776077099
 51       0.008536416560
 52       0.004255898688
 53       0.016374472686
 54       0.000964974517
 55      -0.002422867248
 56      -0.003080734953
 57      -0.001069741273
 58       0.000179832782
 59       0.001588382587
 60      -0.002413768264
 61      -0.001824237737
 62      -0.328254807156
 63      -0.083373649503
 64      -0.233195352076
 65      -0.009690528892
 66       0.034063465268
 67       0.056866805016
 68      -0.024860800793
 69       0.057852081559
 70       0.065753452942
 71      -0.014371366187
 72       0.022753513319
 73       0.009374429465
 74       0.006009124147
 75       0.004050880556
 76      -0.001760731336
 77       0.001597631581
 78       0.004486447657
 79       0.012138422838
 80       0.004469284394
 81       0.000509906780
 82       0.003176427059
 83       0.014142479769
 84       0.000917588708
 85       0.002128371913
 86      -0.001650585227
 87       0.000755452807
 88      -0.000441217287
 89      -0.001994255610
 90      -0.001357171457
 91      -0.000852182187
 92      -0.158072409589
 93      -0.040187842599
 94      -0.112070718822
 95       0.047190357523
 96      -0.022644952693
 97       0.076411118681
 98       0.069746289873
 99      -0.036359987487
100       0.098472939997
101       0.021936835129
102      -0.013225197432
103       0.022051045128
104       0.008468488360
105      -0.002592416480
106       0.004875957579
107      -0.001629367026
108       0.006765663859
109       0.017121622056
110      -0.003581555729
111       0.008529282790
112      -0.003295364230
113       0.016822216728
114       0.000861158280
115      -0.002700036877
116       0.003161875140
117      -0.000795597308
118      -0.000222079376
119       0.001749646367
120       0.002402528429
 Sym=     1a
 Ene= -6.85707214270289E-01
 Spin= Alpha
 Occup= 2.000000
  1      -0.002450769298
  2      -0.127964662491