[Molden Format]
[Title]
 Molden file created by orca_2mkl for BaseName=/home/vladimir/git/molden2qmc/test/N4/ORCA/RHF/cc-pVDZ_QChem_1/./N4

[Atoms] AU
N    1   7          0.9826575896         1.0015548510         0.9637603283 
N    2   7         -0.9826575896        -0.9826575896         0.9826575896 
N    3   7         -0.9826575896         0.9826575896        -0.9826575896 
N    4   7          0.9826575896        -0.9826575896        -0.9826575896 
[GTO]
  1 0
s   8 1.0 
     9046.0000000000         0.4625014943
     1357.0000000000         0.8582537942
      309.3000000000         1.4398036033
       87.7300000000         2.1073802907
       28.5600000000         2.4528112129
       10.2100000000         1.8249171308
        3.8380000000         0.5434603116
        0.7466000000         0.0088335638
s   8 1.0 
     9046.0000000000        -0.2016221615
     1357.0000000000        -0.3837127393
      309.3000000000        -0.6278575813
       87.7300000000        -0.9995645316
       28.5600000000        -1.1840306625
       10.2100000000        -1.2827591972
        3.8380000000        -0.4746144262
        0.7466000000         0.6264625369
s   1 1.0 
        0.2248000000         0.2326790717
p   3 1.0 
       13.5500000000         2.1828372526
        2.9170000000         1.7413495278
        0.7973000000         0.8086982955
p   1 1.0 
        0.2185000000         0.2129385976
d   1 1.0 
        0.8170000000         2.0015142317

  2 0
s   8 1.0 
     9046.0000000000         0.4625014943
     1357.0000000000         0.8582537942
      309.3000000000         1.4398036033
       87.7300000000         2.1073802907
       28.5600000000         2.4528112129
       10.2100000000         1.8249171308
        3.8380000000         0.5434603116
        0.7466000000         0.0088335638
s   8 1.0 
     9046.0000000000        -0.2016221615
     1357.0000000000        -0.3837127393
      309.3000000000        -0.6278575813
       87.7300000000        -0.9995645316
       28.5600000000        -1.1840306625
       10.2100000000        -1.2827591972
        3.8380000000        -0.4746144262
        0.7466000000         0.6264625369
s   1 1.0 
        0.2248000000         0.2326790717
p   3 1.0 
       13.5500000000         2.1828372526
        2.9170000000         1.7413495278
        0.7973000000         0.8086982955
p   1 1.0 
        0.2185000000         0.2129385976
d   1 1.0 
        0.8170000000         2.0015142317

  3 0
s   8 1.0 
     9046.0000000000         0.4625014943
     1357.0000000000         0.8582537942
      309.3000000000         1.4398036033
       87.7300000000         2.1073802907
       28.5600000000         2.4528112129
       10.2100000000         1.8249171308
        3.8380000000         0.5434603116
        0.7466000000         0.0088335638
s   8 1.0 
     9046.0000000000        -0.2016221615
     1357.0000000000        -0.3837127393
      309.3000000000        -0.6278575813
       87.7300000000        -0.9995645316
       28.5600000000        -1.1840306625
       10.2100000000        -1.2827591972
        3.8380000000        -0.4746144262
        0.7466000000         0.6264625369
s   1 1.0 
        0.2248000000         0.2326790717
p   3 1.0 
       13.5500000000         2.1828372526
        2.9170000000         1.7413495278
        0.7973000000         0.8086982955
p   1 1.0 
        0.2185000000         0.2129385976
d   1 1.0 
        0.8170000000         2.0015142317

  4 0
s   8 1.0 
     9046.0000000000         0.4625014943
     1357.0000000000         0.8582537942
      309.3000000000         1.4398036033
       87.7300000000         2.1073802907
       28.5600000000         2.4528112129
       10.2100000000         1.8249171308
        3.8380000000         0.5434603116
        0.7466000000         0.0088335638
s   8 1.0 
     9046.0000000000        -0.2016221615
     1357.0000000000        -0.3837127393
      309.3000000000        -0.6278575813
       87.7300000000        -0.9995645316
       28.5600000000        -1.1840306625
       10.2100000000        -1.2827591972
        3.8380000000        -0.4746144262
        0.7466000000         0.6264625369
s   1 1.0 
        0.2248000000         0.2326790717
p   3 1.0 
       13.5500000000         2.1828372526
        2.9170000000         1.7413495278
        0.7973000000         0.8086982955
p   1 1.0 
        0.2185000000         0.2129385976
d   1 1.0 
        0.8170000000         2.0015142317

[5D]
[9G]
[MO]
 Sym=     1a
 Ene= -1.57521396635115E+01
 Spin= Alpha
 Occup= 2.000000
  1       0.505749019903
  2       0.001213248473
  3      -0.001395817086
  4      -0.001050500360
  5      -0.001060115050
  6      -0.001040050299
  7       0.000717070880
  8       0.000720312925
  9       0.000716955589
 10       0.000005808504
 11      -0.000185946671
 12      -0.000186025724
 13       0.000002981739
 14      -0.000187041447
 15       0.506916991534
 16       0.001195262332
 17      -0.001362598087
 18       0.001046375991
 19       0.001049485657
 20      -0.001055651061
 21      -0.000699854203
 22      -0.000698189209
 23       0.000715073679
 24       0.000001309142
 25       0.000187790429
 26       0.000185327495
 27       0.000001477485
 28      -0.000183374448
 29       0.493109262224
 30       0.001219151347
 31      -0.001354516435
 32       0.001036117485
 33      -0.001025404991
 34       0.001033743221
 35      -0.000717317431
 36       0.000708428437
 37      -0.000715890126
 38       0.000000277135
 39      -0.000194374069
 40       0.000189927323
 41      -0.000001219062
 42       0.000186388013
 43       0.497502143265
 44       0.001204378861
 45      -0.001341170890
 46      -0.001036691147
 47       0.001040253842
 48       0.001034792118
 49       0.000707039089
 50      -0.000703658159
 51      -0.000703895520
 52       0.000001565238
 53       0.000191077512
 54      -0.000189238279
 55       0.000001937406
 56       0.000185085795
 Sym=     1a
 Ene= -1.57512286804934E+01
 Spin= Alpha
 Occup= 2.000000
  1      -0.620013467531
  2      -0.000705391235
  3       0.004238252611
  4       0.000939229743
  5       0.000928613955
  6       0.001060977452
  7      -0.001183478819
  8      -0.001254388970
  9      -0.000691509587
 10       0.000120653397
 11      -0.000078238497
 12      -0.000093116110
 13       0.000011480805
 14      -0.000249863361
 15       0.774880064445
 16       0.000860412664
 17      -0.005302597681
 18       0.001185413117
 19       0.001174255883
 20      -0.001281249098
 21      -0.001378345530
 22      -0.001442136748
 23       0.001095717149
 24      -0.000070467900
 25      -0.000136822786
 26      -0.000157906948
 27      -0.000012827458
 28       0.000242680155
 29      -0.127087448202
 30      -0.000151692776
 31       0.000870770224
 32      -0.000310740799
 33       0.000100763582
 34      -0.000188122429
 35      -0.000219179821
 36      -0.000611951446
 37       0.000262321635
 38      -0.000016854453
 39       0.000116813873
 40       0.000185240831
 41       0.000189334130
 42       0.000014592025
 43      -0.033319575617
 44      -0.000038215882
 45       0.000213221294
 46      -0.000040822444
 47      -0.000168832214
 48      -0.000031910583
 49      -0.000428228142
 50      -0.000407228116
 51       0.000138245979
 52      -0.000033679626
 53       0.000168760320
 54       0.000125118169
 55      -0.000186582134
 56      -0.000021764358
 Sym=     1a
 Ene= -1.57512061160449E+01
 Spin= Alpha
 Occup= 2.000000
  1       0.466843655064
  2       0.000516309919
  3      -0.003193644115
  4      -0.000834272674
  5      -0.000713889931
  6      -0.000657063403
  7       0.000389546246
  8       0.000886248390
  9       0.001064161230
 10       0.000113297656
 11       0.000085136012
 12       0.000252534298
 13      -0.000107044264
 14       0.000007986242
 15       0.338207578074
 16       0.000364495460
 17      -0.002307555788
 18       0.000510164749
 19       0.000634560746
 20      -0.000447275620
 21      -0.000632603622
 22      -0.000141535851
 23       0.000908764496
 24       0.000133919597
 25      -0.000229083119
 26      -0.000057502466
 27       0.000109333177
 28      -0.000037854516
 29      -0.000826232531
 30      -0.000000846102
 31      -0.000023735797
 32      -0.000056566778
 33       0.000074058767
 34       0.000116404722
 35      -0.000205800980
 36       0.000286172765
 37       0.000472999339
 38      -0.000188508412
 39      -0.000103790113
 40       0.000069672965
 41      -0.000020353430
 42      -0.000173938876
 43      -0.818399654924
 44      -0.000922361389
 45       0.005565274249
 46       0.001322065697
 47      -0.001306046314
 48      -0.001248461199
 49      -0.001250459758
 50       0.001332740258
 51       0.001520752112
 52      -0.000061294502
 53       0.000205546231
 54      -0.000233743229
 55       0.000017182459
 56       0.000136844686
 Sym=     1a
 Ene= -1.57511897289196E+01
 Spin= Alpha
 Occup= 2.000000
  1       0.379861280200
  2       0.000411880096
  3      -0.002592463915
  4      -0.000537893946
  5      -0.000707686513
  6      -0.000552344154
  7       0.000881983395
  8       0.000204245290
  9       0.000804165361
 10       0.000074884153
 11       0.000261646350
 12       0.000007827255
 13       0.000161583753
 14       0.000029976852
 15       0.175026760574
 16       0.000184972990
 17      -0.001208882856
 18       0.000391631793
 19       0.000220739831
 20      -0.000208947029
 21       0.000182806990
 22      -0.000503074610
 23       0.000553941425
 24       0.000100618805
 25       0.000030694553
 26      -0.000211083452
 27      -0.000151258729
 28      -0.000046026014
 29      -0.862056633367
 30      -0.000984232196
 31       0.005858532579
 32      -0.001362139873
 33       0.001368660723
 34      -0.001375494977
 35       0.001504663188
 36      -0.001374244022
 37       0.001430742292
 38      -0.000003453999
 39      -0.000237968397
 40       0.000178350571
 41      -0.000036985550
 42       0.000203857639
 43       0.289895976688
 44       0.000320627854
 45      -0.002004853771
 46      -0.000382478601
 47       0.000415238883
 48       0.000566798718
 49       0.000773698297
 50      -0.000652489227
 51      -0.000040585099
 52      -0.000172619695
 53      -0.000012685515
 54      -0.000030126352
 55       0.000028101087
 56      -0.000231081237
 Sym=     1a
 Ene= -1.66476349509101E+00
 Spin= Alpha
 Occup= 2.000000
  1      -0.006548004538
  2       0.203861701607
  3       0.122148051054
  4      -0.074387524004
  5      -0.074383807157
  6      -0.074360309351
  7      -0.023783309513
  8      -0.023941463542
  9      -0.023626115077
 10      -0.000176988661
 11       0.014450292461
 12       0.014450273298
 13      -0.000099365437
 14       0.014454208460
 15      -0.006466798632
 16       0.202561836908
 17       0.120867200697
 18       0.073261223686
 19       0.073744771408
 20      -0.074663485937
 21       0.023375691050
 22       0.023399614728
 23      -0.023669495437
 24       0.000134859322
 25      -0.014471829528
 26      -0.014519339575
 27      -0.000116904209
 28       0.014244635733
 29      -0.006632781857
 30       0.205154299978
 31       0.123472978483
 32       0.075497090083
 33      -0.074062116802
 34       0.074996462990
 35       0.024210211525
 36      -0.023904398641
 37       0.024181456413
 38      -0.000036784802
 39       0.014658740739
 40      -0.014381542662
 41       0.000177596446
 42      -0.014427589100
 43      -0.006549050590
 44       0.203840929790
 45       0.122156616510
 46      -0.074371495215
 47       0.074855461998
 48       0.073871557977
 49      -0.023787907404
 50       0.023814630688
 51       0.023762015589
 52      -0.000205852471
 53      -0.014404895643
 54       0.014449149035
 55      -0.000118483586
 56      -0.014498487244
 Sym=     1a
 Ene= -1.04988249766939E+00
 Spin= Alpha
 Occup= 2.000000
  1       0.000734387724
  2       0.265710775709
  3       0.335845139864
  4      -0.026013832877
  5       0.100984527516
  6      -0.087202663942
  7      -0.027988370135
  8       0.012062665723
  9      -0.047480884471
 10       0.013933794321
 11       0.015038034998
 12      -0.001605748795
 13       0.012429671826
 14      -0.009844560439
 15      -0.000688654350
 16      -0.284463862427
 17      -0.359914378151
 18      -0.029971866272
 19       0.094962785521
 20       0.075648845256
 21      -0.030710615172
 22       0.008842018848
 23       0.045644160487
 24      -0.012238345748
 25       0.014194915265
 26      -0.002424542638
 27      -0.012220768266
 28       0.008397989214
 29       0.000456710317
 30       0.156297732466
 31       0.197581572817
 32       0.101235841132
 33       0.135007755466
 34       0.038620432052
 35       0.043827412299
 36       0.031194835053
 37       0.023879461209
 38       0.006081070013
 39       0.018621028671
 40       0.012775709510
 41       0.022995513635
 42       0.004610674245
 43      -0.000322881404
 44      -0.139513964076
 45      -0.176841504066
 46       0.094584206866
 47       0.138173672238
 48      -0.049357606020
 49       0.040587144892
 50       0.033284831183
 51      -0.026184588800
 52      -0.008092312830
 53       0.019148305122
 54       0.011682592780
 55      -0.022870487709
 56      -0.005635497651
 Sym=     1a
 Ene= -1.04645743163149E+00
 Spin= Alpha
 Occup= 2.000000
  1       0.000195932545
  2       0.074272282368
  3       0.094414333951
  4       0.150182167354
  5      -0.076444802825
  6      -0.075725592758
  7       0.042464807661
  8      -0.029936755296
  9      -0.029931649717
 10       0.012553010815
 11      -0.009651553238
 12       0.020248295111
 13      -0.022189519611
 14      -0.009802030623
 15      -0.000526167799
 16      -0.202116545014
 17      -0.256670917081
 18       0.112640683948
 19      -0.112656805795
 20       0.005232873610
 21       0.020931876501
 22      -0.051136219689
 23       0.016971692402
 24      -0.000500030203
 25      -0.014017054038
 26       0.015930665339
 27       0.021936876382
 28      -0.000266727681
 29      -0.000542487309
 30      -0.201121902828
 31      -0.255852486899
 32       0.113047108165
 33       0.004399214642
 34      -0.114221287572
 35       0.020959065768
 36       0.016429158433
 37      -0.051777333798
 38      -0.018984005706
 39      -0.000370891387
 40       0.015883176055
 41       0.011560278875
 42      -0.014128301375
 43       0.000871202945
 44       0.328967006508
 45       0.418122110541
 46       0.075481689239
 47       0.043135068571
 48       0.041179274332
 49      -0.000585907418
 50       0.038630556093
 51       0.037818736108
 52       0.006349737282
 53       0.004069090182
 54       0.011560504315
 55      -0.011639937741
 56       0.003978828163
 Sym=     1a
 Ene= -1.04308235151402E+00
 Spin= Alpha
 Occup= 2.000000
  1       0.000670670837
  2       0.264874047849
  3       0.338518490883
  4      -0.020977941585
  5      -0.084726520086
  6       0.103678348228
  7      -0.026935831639
  8      -0.047423216594
  9       0.013534928292
 10      -0.017659162208
 11      -0.010415955737
 12      -0.002100716960
 13      -0.006339178984
 14       0.014593581021
 15       0.000376438887
 16       0.157985291244
 17       0.201862732399
 18       0.099552598024
 19       0.037140832038
 20       0.133154810636
 21       0.044040370439
 22       0.023986784847
 23       0.030971148204
 24      -0.022829787690
 25       0.003946291066
 26       0.012338004491
 27       0.005968172127
 28       0.018389262869
 29      -0.000820059206
 30      -0.284506643903
 31      -0.363231833240
 32      -0.028257715801
 33       0.074864642010
 34       0.098472690796
 35      -0.030699950753
 36       0.045289048835
 37       0.010279563314
 38       0.016848996462
 39       0.008841811768
 40      -0.002586366627
 41       0.004515039029
 42       0.014138521009
 43      -0.000407639861
 44      -0.136370945203
 45      -0.173782710875
 46       0.094953696396
 47      -0.047931070657
 48       0.141188514944
 49       0.040803298976
 50      -0.025681577199
 51       0.035360500504
 52       0.023777245039
 53      -0.005943358866
 54       0.012112556164
 55      -0.004575424476
 56       0.019179892805
 Sym=     1a
 Ene= -6.85760320281035E-01
 Spin= Alpha
 Occup= 2.000000
  1      -0.004276239511
  2       0.098174777744
  3       0.219202781639
  4       0.165061091905
  5       0.167443185456
  6       0.162687954868
  7       0.086713161562
  8       0.088190981918
  9       0.085246948955
 10       0.000479350632
 11      -0.021236720192
 12      -0.021627645854
 13       0.000280087082
 14      -0.022024616566
 15      -0.004304841819
 16       0.098137202741
 17       0.219798244312
 18      -0.163392368054
 19      -0.164222159697
 20       0.164163966306
 21      -0.085663614315
 22      -0.085886635162
 23       0.085842635392
 24      -0.000104677879
 25       0.021456958865
 26       0.021565046230
 27       0.000086094089
 28      -0.021547501370
 29      -0.004247956420
 30       0.098188105062
 31       0.218522558176
 32      -0.166755859144
 33       0.165933589895
 34      -0.165942982620
 35      -0.087802256629
 36       0.087589696178
 37      -0.087586946627
 38       0.000015559568
 39      -0.021727895441
 40       0.021701221709
 41      -0.000143216441
 42       0.021808766406
 43      -0.004277133899
 44       0.098170805907
 45       0.219184996439
 46       0.165037237454
 47      -0.165888069881
 48      -0.164245399058
 49       0.086705640306
 50      -0.086944290648
 51      -0.086505930422
 52       0.000146586643
 53       0.021524232754
 54      -0.021635569339
 55       0.000088432358
 56       0.021739811269
 Sym=     1a
 Ene= -5.71334652105524E-01
 Spin= Alpha
 Occup= 2.000000
  1       0.006766150872
  2       0.122712930210
  3       0.152782393548
  4       0.027927211297
  5       0.027131869116
  6       0.295394967871
  7       0.039411559949
  8       0.039238337742
  9       0.186250002374
 10      -0.025995689764
 11      -0.008271352329
 12      -0.007954401311
 13       0.000275474891
 14       0.003637453290
 15      -0.011622178396
 16      -0.208685331845
 17      -0.259048783494
 18       0.160394689402
 19       0.170397538801
 20      -0.254291115506
 21       0.128587664978
 22       0.134850295803
 23      -0.180622104094
 24       0.008375404630
 25      -0.007757096817
 26      -0.008529589765
 27      -0.000546659647
 28       0.004312631153
 29       0.002196239514
 30       0.040407771929
 31       0.050565503733
 32      -0.248915767064
 33      -0.110390665810
 34       0.025275692994
 35      -0.144809868493
 36      -0.052590357418
 37       0.006286564403
 38       0.009262248700
 39      -0.007701735665
 40      -0.008000100476
 41      -0.029953966472
 42       0.003800245449
 43       0.002414562599
 44       0.044420221191
 45       0.055691586697
 46      -0.102484171772
 47      -0.243436667040
 48       0.019882231246
 49      -0.047372937535
 50      -0.141633770423
 51       0.002442540441
 52       0.008745981657
 53      -0.007171281682
 54      -0.007077719850
 55       0.029608828536
 56       0.003928664991
 Sym=     1a
 Ene= -5.70198692227920E-01
 Spin= Alpha
 Occup= 2.000000
  1       0.007273242539
  2       0.130434660099
  3       0.161606329294
  4       0.296162280650
  5       0.033886814947
  6       0.036924545211
  7       0.188746722987
  8       0.044660546049
  9       0.045761448612
 10       0.013000303383
 11      -0.008315110169
 12       0.003231873199
 13      -0.021659078887
 14      -0.007619940620
 15       0.002265891396
 16       0.040756670122
 17       0.050660666971
 18       0.013762978403
 19      -0.235584694108
 20      -0.110693005768
 21      -0.000595035562
 22      -0.136709962134
 23      -0.052812647923
 24       0.022193294187
 25      -0.006802953402
 26       0.003572395509
 27       0.021292564346
 28      -0.007131857699
 29       0.001913251671
 30       0.034217081908
 31       0.042237382236
 32       0.022004659557
 33      -0.125446265331
 34      -0.247193806349
 35       0.005403257971
 36      -0.062360723026
 37      -0.143704210959
 38      -0.030543829394
 39      -0.008441608128
 40       0.003329814440
 41      -0.008174096681
 42      -0.008381795292
 43      -0.011462015605
 44      -0.205414694606
 45      -0.254427228531
 46      -0.258508279387
 47       0.168747194838
 48       0.150424482205
 49      -0.182763257218
 50       0.134210446942
 51       0.122559997981
 52      -0.005645525695
 53      -0.007336703678
 54       0.003879207680
 55       0.007870003533
 56      -0.008795099709
 Sym=     1a
 Ene= -5.69000279721231E-01
 Spin= Alpha
 Occup= 2.000000
  1      -0.006789828094
  2      -0.120220161430
  3      -0.148093390137
  4      -0.013696620230
  5      -0.292455236602
  6      -0.026839808977
  7      -0.031453793144
  8      -0.185223433960
  9      -0.038422573014
 10      -0.012506059543
 11      -0.003883493766
 12       0.007895694683
 13      -0.023234569793
 14       0.007085412839
 15      -0.002324945572
 16      -0.040654339982
 17      -0.049858961944
 18       0.244764108496
 19      -0.026951673107
 20       0.103008944964
 21       0.142862044774
 22      -0.006420326741
 23       0.048850694083
 24      -0.020764198793
 25      -0.004288374717
 26       0.007238467419
 27       0.022887030098
 28       0.007331171532
 29       0.011649327752
 30       0.208344145239
 31       0.257451925732
 32      -0.168523040309
 33       0.247720175828
 34      -0.171886482774
 35      -0.134771486665
 36       0.177967797647
 37      -0.135902685508
 38       0.003429326352
 39      -0.004513063167
 40       0.007682089758
 41       0.007036038736
 42       0.007849227730
 43      -0.002778917517
 44      -0.048604354294
 45      -0.059493410109
 46       0.103469586942
 47      -0.012502028620
 48       0.256626164255
 49       0.047577784765
 50       0.003053803015
 51       0.151893523184
 52       0.030100383364
 53      -0.004195196948
 54       0.008472124243
 55      -0.007347514409
 56       0.007438778418
 Sym=     1a
 Ene= -5.36730982470193E-01
 Spin= Alpha
 Occup= 2.000000
  1      -0.000398899354
  2      -0.003273918150
  3      -0.002207711112
  4       0.185838800857
  5      -0.256353356759
  6       0.066545642034
  7       0.123946608809
  8      -0.172647290822
  9       0.043935972320
 10      -0.002539092774
 11      -0.027440036921
 12       0.020166164253
 13      -0.009514891341
 14       0.007314984132
 15       0.000022173462
 16       0.001664702162
 17       0.002607613104
 18      -0.194564726184
 19       0.261382622233
 20       0.073478297569
 21      -0.130421717119
 22       0.174853511203
 23       0.049363077405
 24      -0.003100442330
 25       0.027853625590
 26      -0.020320556984
 27      -0.010447417061
 28       0.007470027135
 29      -0.000284741504
 30      -0.001919246022
 31      -0.000866952850
 32      -0.186226899968
 33      -0.254664381028
 34      -0.062738017662
 35      -0.124648694906
 36      -0.171573470850
 37      -0.041685919074
 38      -0.001793493166
 39      -0.027304978943
 40      -0.020460451802
 41      -0.009091157446
 42      -0.007541168382
 43       0.000142294890
 44       0.003131199208
 45       0.004079397241
 46       0.194899634041
 47       0.258200820801
 48      -0.074862696016
 49       0.131129906749
 50       0.172780167422
 51      -0.050609918640
 52      -0.003046172711
 53       0.027861158671
 54       0.020329798320
 55      -0.010404860051
 56      -0.007176849780
 Sym=     1a
 Ene= -5.31468476250085E-01
 Spin= Alpha
 Occup= 2.000000
  1      -0.000378686009
  2      -0.002876770576
  3      -0.001710375934
  4      -0.191874717385
  5      -0.071518196623
  6       0.260808714862
  7      -0.130693572112
  8      -0.049124756445
  9       0.176114033378
 10      -0.009808238820
 11      -0.007510930739
 12      -0.020310242565
 13       0.002596713153
 14       0.027806222886
 15      -0.000275429625
 16      -0.001727243569
 17      -0.000639654936
 18       0.192056392253
 19       0.074971685711
 20       0.262117454612
 21       0.130354288034
 22       0.051202232494
 23       0.176902349408
 24      -0.010508329495
 25       0.007246793055
 26       0.020007730467
 27       0.002236396750
 28       0.027936882664
 29       0.000012667220
 30       0.001541599087
 31       0.002481187443
 32       0.184311752926
 33      -0.065618920592
 34      -0.256072598565
 35       0.124939295545
 36      -0.044363495362
 37      -0.173860308941
 38      -0.008845567535
 39      -0.007337816726
 40       0.020162763613
 41       0.002630347610
 42      -0.027469273949
 43       0.000111920325
 44       0.002610376578
 45       0.003455895860
 46      -0.184456604510
 47       0.064264520342
 48      -0.258597669344
 49      -0.124607513704
 50       0.043194448830
 51      -0.175476639171
 52      -0.008876164158
 53       0.007616269974
 54      -0.020122616760
 55       0.002645770545
 56      -0.027457210447
 Sym=     1a
 Ene= 1.94915891122743E-01
 Spin= Alpha
 Occup= 0.000000
  1       0.000666566988
  2      -0.006383448103
  3      -0.038370230453
  4       0.256892102358
  5       0.107014597459
  6      -0.341028450246
  7       0.383026796737
  8       0.163470363368
  9      -0.493741085334
 10       0.001383683710
 11      -0.003703751146
 12      -0.008325669768
 13      -0.000320378978
 14       0.010242681785
 15      -0.000598636001
 16       0.005280267031
 17       0.032647390213
 18       0.180182841899
 19       0.186045356812
 20       0.339922397354
 21       0.270735477062
 22       0.278190616170
 23       0.493835612536
 24      -0.000978276310
 25      -0.005926220991
 26      -0.005988333161
 27      -0.000047705284
 28      -0.010610226390
 29      -0.000112001418
 30       0.001139694792
 31       0.006738007107
 32      -0.166182948071
 33      -0.096752623810
 34       0.075277928708
 35      -0.235084986936
 36      -0.135962024235
 37       0.111032181437
 38       0.000084026860
 39       0.002310311165
 40       0.004167264844
 41      -0.000845749589
 42      -0.002129035661
 43       0.000036914138
 44      -0.000067772841
 45      -0.001040178266
 46      -0.243327820431
 47      -0.173869671143
 48      -0.070055510095
 49      -0.347652497515
 50      -0.248057835848
 51      -0.101114006497
 52      -0.000394346873
 53       0.004545443675
 54       0.006665341776
 55       0.001193935644
 56       0.002141783452
 Sym=     1a
 Ene= 1.96955643265291E-01
 Spin= Alpha
 Occup= 0.000000
  1       0.000122600534
  2      -0.001149852063
  3      -0.006982515975
  4      -0.007187656283
  5       0.045219945454
  6      -0.033891806146
  7      -0.007975534004
  8       0.066649680016
  9      -0.049063939756
 10       0.000353725891
 11      -0.001149838234
 12      -0.000400577469
 13      -0.000258867146
 14       0.001230825568
 15      -0.000162103616
 16       0.000719159151
 17       0.006143611468
 18      -0.262076436790
 19       0.300329119575
 20       0.033996235404
 21      -0.380718347239
 22       0.439899892454
 23       0.049489319328
 24      -0.000118327036
 25      -0.008926436209
 26       0.007626740264
 27      -0.000988699695
 28      -0.001098453965
 29      -0.000166550572
 30       0.000728342155
 31       0.006318889606
 32       0.265434595873
 33      -0.045190862040
 34      -0.306211322531
 35       0.391255281837
 36      -0.066438895885
 37      -0.447661774852
 38      -0.001351096784
 39       0.001289267272
 40      -0.008320838110
 41       0.000571568464
 42       0.009411674178
 43       0.000206125480
 44      -0.000297272118
 45      -0.005479664637
 46       0.011168195274
 47      -0.299147186243
 48       0.307304835761
 49       0.018806753172
 50      -0.438285129269
 51       0.449199671133
 52       0.001088234774
 53       0.008997067251
 54      -0.000483487347
 55       0.000753554608
 56      -0.009361445200
 Sym=     1a
 Ene= 1.98768970334316E-01
 Spin= Alpha
 Occup= 0.000000
  1       0.000677709759
  2      -0.006245277703
  3      -0.038257326392
  4      -0.249661003892
  5       0.347102785171
  6      -0.074873238040
  7      -0.358058812965
  8       0.513479836895
  9      -0.102742753139
 10       0.000265639709
 11      -0.010570639045
 12       0.007039160109
 13       0.001251526139
 14       0.001804719465
 15      -0.000114241151
 16       0.001416019100
 17       0.007805898411
 18       0.176500249985
 19      -0.085895602740
 20       0.084275868913
 21       0.266111299623
 22      -0.124573382877
 23       0.128422578346
 24      -0.000001081695
 25       0.002713251798
 26      -0.006172423143
 27       0.000606680393
 28      -0.003119894439
 29      -0.000581671714
 30       0.004870370569
 31       0.031037597847
 32      -0.162977190046
 33      -0.347213320682
 34      -0.159662031283
 35      -0.231249086511
 36      -0.511056025385
 37      -0.227693961630
 38      -0.000752045990
 39       0.010156938233
 40       0.004425557952
 41      -0.001414716940
 42       0.004533744286
 43       0.000024761955
 44      -0.000012401053
 45      -0.000565214441
 46       0.262805548154
 47       0.091685836171
 48       0.170835266836
 49       0.392799620230
 50       0.136049812470
 51       0.255948543441
 52       0.000492180628
 53      -0.002748128857
 54      -0.008618290794
 55      -0.000489558169
 56      -0.005859204456
 Sym=     1a
 Ene= 2.72995531812568E-01
 Spin= Alpha
 Occup= 0.000000
  1       0.021261045402
  2      -0.144384251262
  3      -1.091512653500
  4       0.173602990329
  5       0.215976815511
  6       0.113382017232
  7       0.510058558945
  8       0.697330114552
  9       0.214140586283
 10      -0.004986859621
 11      -0.023653181481
 12      -0.015381681004
 13      -0.002212023815
 14      -0.000547430017
 15      -0.027036448754
 16       0.180861152083
 17       1.374558469198
 18       0.203346107845