[Molden Format]                                                                 
[ATOMS] AU                                                                      
N        1    7        1.2141712962       -0.0000000000        1.1929119035     
N        2    7       -1.3902703010        0.8023367264        0.5821232275     
N        3    7        0.5808227702        0.8023367264       -1.3773978299     
N        4    7       -0.4047237654       -1.6046734527       -0.3976373012     
[Molden Format]                                                                 
[GTO]                                                                           
  1 0
s   5 1.00
   1712.8415852999999       -5.3933999999999996E-003                            
   257.64812680000000       -4.0221600000000003E-002                            
   58.458245900000001      -0.17931140000000001                                 
   16.198367900000001      -0.46376319999999999                                 
   5.0052601000000001      -0.44171420000000000                                 
s   2 1.00
  0.58731860000000002        1.0000000000000000                                 
  0.18764590000000000        0.0000000000000000                                 
s   2 1.00
  0.58731860000000002        0.0000000000000000                                 
  0.18764590000000000        1.0000000000000000                                 
p   3 1.00
   13.571470200000000       -4.0072400000000001E-002                            
   2.9257373000000002      -0.21807050000000000                                 
  0.79927749999999997      -0.51294470000000003                                 
p   1 1.00
  0.21954350000000000        1.0000000000000000                                 
d   1 1.00
   1.0000000000000000        1.0000000000000000                                 

  2 0
s   5 1.00
   1712.8415852999999       -5.3933999999999996E-003                            
   257.64812680000000       -4.0221600000000003E-002                            
   58.458245900000001      -0.17931140000000001                                 
   16.198367900000001      -0.46376319999999999                                 
   5.0052601000000001      -0.44171420000000000                                 
s   2 1.00
  0.58731860000000002        1.0000000000000000                                 
  0.18764590000000000        0.0000000000000000                                 
s   2 1.00
  0.58731860000000002        0.0000000000000000                                 
  0.18764590000000000        1.0000000000000000                                 
p   3 1.00
   13.571470200000000       -4.0072400000000001E-002                            
   2.9257373000000002      -0.21807050000000000                                 
  0.79927749999999997      -0.51294470000000003                                 
p   1 1.00
  0.21954350000000000        1.0000000000000000                                 
d   1 1.00
   1.0000000000000000        1.0000000000000000                                 

  3 0
s   5 1.00
   1712.8415852999999       -5.3933999999999996E-003                            
   257.64812680000000       -4.0221600000000003E-002                            
   58.458245900000001      -0.17931140000000001                                 
   16.198367900000001      -0.46376319999999999                                 
   5.0052601000000001      -0.44171420000000000                                 
s   2 1.00
  0.58731860000000002        1.0000000000000000                                 
  0.18764590000000000        0.0000000000000000                                 
s   2 1.00
  0.58731860000000002        0.0000000000000000                                 
  0.18764590000000000        1.0000000000000000                                 
p   3 1.00
   13.571470200000000       -4.0072400000000001E-002                            
   2.9257373000000002      -0.21807050000000000                                 
  0.79927749999999997      -0.51294470000000003                                 
p   1 1.00
  0.21954350000000000        1.0000000000000000                                 
d   1 1.00
   1.0000000000000000        1.0000000000000000                                 

  4 0
s   5 1.00
   1712.8415852999999       -5.3933999999999996E-003                            
   257.64812680000000       -4.0221600000000003E-002                            
   58.458245900000001      -0.17931140000000001                                 
   16.198367900000001      -0.46376319999999999                                 
   5.0052601000000001      -0.44171420000000000                                 
s   2 1.00
  0.58731860000000002        1.0000000000000000                                 
  0.18764590000000000        0.0000000000000000                                 
s   2 1.00
  0.58731860000000002        0.0000000000000000                                 
  0.18764590000000000        1.0000000000000000                                 
p   3 1.00
   13.571470200000000       -4.0072400000000001E-002                            
   2.9257373000000002      -0.21807050000000000                                 
  0.79927749999999997      -0.51294470000000003                                 
p   1 1.00
  0.21954350000000000        1.0000000000000000                                 
d   1 1.00
   1.0000000000000000        1.0000000000000000                                 

                                                                                
[MO]
 Sym= A
 Ene=  -16.141397941620749     
 Spin= Alpha
 Occup= 1.0
  1        0.0979071575
  2       -0.0036476865
  3       -0.0019468841
  4       -0.0004173358
  5       -0.0000906509
  6       -0.0001876535
  7       -0.0009835653
  8       -0.0009598409
  9        0.0013539767
 10       -0.0001814827
 11       -0.0002041932
 12        0.0003856759
 13       -0.0001226324
 14        0.0004382711
 15       -0.0003512110
 16        0.0042267937
 17       -0.0004520716
 18       -0.0045381976
 19        0.0000566904
 20       -0.0001236677
 21        0.0000508161
 22       -0.0011571048
 23       -0.0008168969
 24        0.0017108036
 25        0.0002123873
 26       -0.0002643960
 27        0.0000520087
 28       -0.0001337149
 29       -0.0007382740
 30        0.0000803172
 31        0.9859497819
 32       -0.0338409212
 33        0.0214594525
 34       -0.0019063095
 35       -0.0019657801
 36        0.0028189447
 37       -0.0030678282
 38       -0.0037498540
 39        0.0060773674
 40        0.0000262278
 41        0.0000213847
 42       -0.0000476126
 43       -0.0000001444
 44       -0.0000242550
 45        0.0000308002
 46        0.0041993006
 47       -0.0004577132
 48       -0.0045097219
 49       -0.0000210400
 50        0.0000657073
 51        0.0001250548
 52       -0.0009316637
 53       -0.0013269955
 54        0.0015035700
 55       -0.0001638163
 56        0.0003756239
 57       -0.0002118075
 58        0.0005275920
 59       -0.0000945535
 60       -0.0003040207
 Sym= A
 Ene=  -16.139587872058151     
 Spin= Alpha
 Occup= 1.0
  1        0.9859549285
  2       -0.0337191365
  3        0.0221703547
  4       -0.0031513071
  5       -0.0002729124
  6       -0.0024181405
  7       -0.0057157178
  8       -0.0000340070
  9       -0.0055432402
 10        0.0000584364
 11        0.0000642316
 12       -0.0001226680
 13        0.0000110356
 14       -0.0000932148
 15        0.0001043059
 16        0.0034683393
 17       -0.0003659441
 18       -0.0037387720
 19        0.0000238273
 20       -0.0000509671
 21       -0.0001301547
 22       -0.0016836637
 23        0.0002638160
 24       -0.0015420870
 25        0.0003877799
 26       -0.0001400332
 27       -0.0002477467
 28       -0.0004444273
 29        0.0002468164
 30       -0.0000704262
 31       -0.0977955560
 32        0.0030327321
 33       -0.0061930286
 34        0.0000651174
 35        0.0001544505
 36       -0.0003044323
 37       -0.0010335965
 38        0.0005319289
 39       -0.0022767664
 40       -0.0002503692
 41       -0.0001822983
 42        0.0004326675
 43       -0.0000770945
 44        0.0002159161
 45       -0.0004867865
 46        0.0035917816
 47       -0.0003893671
 48       -0.0036689631
 49       -0.0000588556
 50        0.0001120380
 51       -0.0000730791
 52       -0.0014962643
 53       -0.0001500946
 54       -0.0017203198
 55       -0.0000150258
 56        0.0000378802
 57       -0.0000228544
 58        0.0004937509
 59        0.0004462512
 60        0.0005720510
 Sym= A
 Ene=  -16.094508146301102     
 Spin= Alpha
 Occup= 1.0
  1        0.0050897293
  2        0.0002400193
  3        0.0053843397
  4       -0.0000001177
  5       -0.0000103036
  6        0.0001158720
  7       -0.0019678684
  8       -0.0000642650
  9        0.0000710138
 10       -0.0003524333
 11        0.0002070660
 12        0.0001453672
 13        0.0000807782
 14       -0.0006331377
 15       -0.0001110720
 16       -0.8794916734
 17        0.0288598649
 18       -0.0166112694
 19       -0.0028831665
 20        0.0017097913
 21        0.0012549155
 22       -0.0055236754
 23        0.0022266606
 24        0.0020410399
 25        0.0000945744
 26       -0.0000956643
 27        0.0000010899
 28        0.0001431199
 29        0.0000057268
 30       -0.0000972781
 31        0.0050053359
 32        0.0002629904
 33        0.0053133341
 34       -0.0000633641
 35        0.0000569876
 36       -0.0000811930
 37       -0.0018029102
 38       -0.0002397850
 39        0.0006829646
 40       -0.0000035478
 41        0.0001009346
 42       -0.0000973868
 43       -0.0002788494
 44        0.0007790062
 45        0.0003297175
 46       -0.4572835316
 47        0.0152495233
 48       -0.0062724430
 49       -0.0005092715
 50       -0.0017876954
 51       -0.0004304718
 52       -0.0022022656
 53       -0.0022762225
 54       -0.0001889933
 55        0.0001665432
 56       -0.0002728849
 57        0.0001063417
 58        0.0003511056
 59        0.0001105201
 60       -0.0003606802
 Sym= A
 Ene=  -16.094053176443893     
 Spin= Alpha
 Occup= 1.0
  1        0.0016946298
  2        0.0000830489
  3        0.0017002754
  4        0.0000386150
  5       -0.0001281170
  6       -0.0000178457
  7        0.0002066847
  8       -0.0020613535
  9       -0.0007899855
 10        0.0001417573
 11       -0.0000318965
 12       -0.0001098608
 13       -0.0005698101
 14       -0.0003140354
 15       -0.0004648822
 16        0.4572008850
 17       -0.0146376438
 18        0.0129678017
 19        0.0013710706
 20       -0.0009732182
 21       -0.0006477132
 22        0.0025820282
 23       -0.0034098230
 24       -0.0016782947
 25        0.0000766337
 26       -0.0002526034
 27        0.0001759698
 28        0.0005553949
 29        0.0002721425
 30       -0.0004667677
 31        0.0015509957
 32        0.0000784718
 33        0.0017165196
 34        0.0000326171
 35       -0.0001112682
 36       -0.0000779850
 37        0.0002632676
 38       -0.0021252171
 39       -0.0005949861
 40        0.0001740512
 41       -0.0003487550
 42        0.0001747037
 43       -0.0003610613
 44       -0.0001346737
 45        0.0004507067
 46       -0.8794344482
 47        0.0286090006
 48       -0.0202437369
 49       -0.0006985232
 50       -0.0033613748
 51       -0.0008731680
 52       -0.0008517432
 53       -0.0068559457
 54       -0.0019122203
 55       -0.0001202233
 56        0.0002771033
 57       -0.0001568799
 58       -0.0001403297
 59       -0.0000925266
 60        0.0003457004
 Sym= A
 Ene=  -2.0408971265249298     
 Spin= Alpha
 Occup= 1.0
  1        0.1388100319
  2        0.2898025111
  3        0.0726091134
  4        0.1062760162
  5        0.0031239396
  6        0.0979493917
  7       -0.0317260756
  8       -0.0012330662
  9       -0.0279256538
 10        0.0028699095
 11       -0.0075794672
 12        0.0047095577
 13        0.0009912778
 14        0.0193950099
 15       -0.0025634043
 16        0.1217685042
 17        0.2466471991
 18        0.0520455274
 19       -0.1062368990
 20        0.0629898793
 21        0.0456919042
 22        0.0266001015
 23       -0.0175480481
 24       -0.0117964996
 25        0.0066424975
 26       -0.0021419760
 27       -0.0045005215
 28       -0.0154091524
 29       -0.0112037365
 30        0.0067180868
 31        0.1398655728
 32        0.2919585595
 33        0.0737179966
 34        0.0556587013
 35        0.0700613996
 36       -0.1141470787
 37       -0.0170619068
 38       -0.0206917907
 39        0.0331577248
 40       -0.0042900961
 41       -0.0034301204
 42        0.0077202165
 43        0.0068398612
 44       -0.0084449257
 45       -0.0163714709
 46        0.1226397476
 47        0.2483076289
 48        0.0531025655
 49       -0.0304578679
 50       -0.1252007383
 51       -0.0311215800
 52        0.0063598146
 53        0.0328653506
 54        0.0086157582
 55       -0.0055142038
 56        0.0112990187
 57       -0.0057848149
 58        0.0090063990
 59        0.0020949631
 60        0.0090218136
 Sym= A
 Ene=  -1.4387768422676126     
 Spin= Alpha
 Occup= 1.0
  1        0.1993984045
  2        0.4430709255
  3        0.3491062710
  4        0.0938276754
  5        0.0719878254
  6       -0.0802644586
  7       -0.0863146415
  8       -0.0198923901
  9       -0.0369616068
 10        0.0070447770
 11       -0.0016042448
 12       -0.0054405322
 13        0.0073691821
 14        0.0007892584
 15        0.0035319424
 16       -0.0036879836
 17       -0.0081472770
 18       -0.0047166622
 19       -0.0382014123
 20        0.0468381112
 21       -0.1566525642
 22        0.0059803674
 23       -0.0076672860
 24        0.0273442035
 25        0.0061602928
 26        0.0033936491
 27       -0.0095539419
 28       -0.0103425151
 29        0.0225942916
 30       -0.0084216190
 31       -0.1964305614
 32       -0.4374471638
 33       -0.3441895882
 34       -0.1347955745
 35       -0.0273204512
 36       -0.0683883146
 37        0.0656056324
 38        0.0467497837
 39       -0.0475526569
 40       -0.0050663718
 41        0.0001289922
 42        0.0049373796
 43       -0.0092853068
 44        0.0079366393
 45        0.0001792537
 46        0.0000560635
 47        0.0001959583
 48       -0.0009351821
 49       -0.0415547360
 50        0.0488110605
 51       -0.1571072879
 52        0.0071963661
 53       -0.0087541481
 54        0.0270021213
 55        0.0024404248
 56       -0.0083556013
 57        0.0059151765
 58        0.0041442502
 59        0.0111054827
 60        0.0249405537
 Sym= A
 Ene=  -1.3992939988885420     
 Spin= Alpha
 Occup= 1.0
  1        0.1300182703
  2        0.2851991599
  3        0.2492340812
  4       -0.1060262222
  5       -0.0817324716
  6        0.1118133925
  7       -0.0218806864
  8        0.0170571593
  9       -0.0675532999
 10       -0.0139414663
 11       -0.0016533284
 12        0.0155947947
 13       -0.0082467080
 14        0.0004841069
 15       -0.0140311959
 16       -0.1417612839
 17       -0.3050507378
 18       -0.2661449818
 19       -0.0584429040
 20       -0.1439651864
 21       -0.0282994833
 22       -0.0457673017
 23        0.0619708959
 24        0.0303695174
 25        0.0091940477
 26       -0.0108722680
 27        0.0016782203
 28        0.0134236701
 29        0.0007799700
 30       -0.0120795800
 31        0.1360139213
 32        0.2983996260
 33        0.2621802559
 34       -0.1486029969
 35       -0.0210865781
 36       -0.0752167756
 37        0.0085645609
 38       -0.0268214363
 39        0.0683096204
 40       -0.0090025937
 41       -0.0039714232
 42        0.0129740170
 43       -0.0126862821
 44        0.0201018790
 45       -0.0054076591
 46       -0.1311902390
 47       -0.2823368499
 48       -0.2482054406
 49       -0.1460992804
 50        0.0526190416
 51        0.0545333214
 52        0.0134996997
 53       -0.0731090297
 54       -0.0261686623
 55        0.0058515141
 56       -0.0067635205
 57        0.0009120064
 58        0.0215562024
 59        0.0053009313
 60       -0.0120007103
 Sym= A
 Ene=  -1.3773675021122156     
 Spin= Alpha
 Occup= 1.0
  1        0.0054511655
  2        0.0119318312
  3        0.0126021802
  4        0.0780576384
  5       -0.2027099418
  6       -0.0809826324
  7       -0.0211902297
  8        0.0477637220
  9        0.0170339278
 10        0.0096263039
 11       -0.0024021857
 12       -0.0072241181
 13       -0.0239587957
 14       -0.0026368567
 15       -0.0199610133
 16        0.1778394782
 17        0.3823042811
 18        0.3408075368
 19       -0.0783829675
 20       -0.0875466431
 21       -0.0081180771
 22        0.0861976472
 23       -0.0243192990
 24       -0.0286756896
 25        0.0103314341
 26       -0.0088546996
 27       -0.0014767345
 28        0.0040749612
 29       -0.0038617976
 30       -0.0059182439
 31        0.0028658852
 32        0.0062325453
 33        0.0048897803
 34        0.0774166532
 35       -0.2045354799
 36       -0.0879171179
 37       -0.0188132565
 38        0.0481215482
 39        0.0219678491
 40        0.0057959185
 41       -0.0155178472
 42        0.0097219287
 43       -0.0090315357
 44       -0.0146227795
 45        0.0158943796
 46       -0.1854918914
 47       -0.3988447835
 48       -0.3568753354
 49        0.1062106668
 50        0.0019276987
 51       -0.0271504710
 52       -0.0422241269
 53       -0.0868772907
 54       -0.0161291371
 55       -0.0023315566
 56        0.0001116171
 57        0.0022199395
 58       -0.0183088503
 59       -0.0038345846
 60        0.0040994598
 Sym= A
 Ene=  -1.0571850134936713     
 Spin= Alpha
 Occup= 1.0
  1        0.0906915205
  2        0.2057268733
  3        0.1935942669
  4       -0.1387920778
  5        0.0866051067
  6       -0.3610911404
  7        0.0529200345
  8       -0.0400138646
  9        0.1569196328
 10       -0.0002021699
 11        0.0107667914
 12       -0.0105646215
 13        0.0050189878
 14       -0.0343582697
 15        0.0039202206
 16        0.0326157905
 17        0.0628654563
 18        0.0975673600
 19        0.1512356662
 20       -0.0705211956
 21       -0.0651616965
 22       -0.0517739970
 23        0.0266340940
 24        0.0230314373
 25       -0.0107864241
 26        0.0029097678
 27        0.0078766563
 28        0.0150771641
 29        0.0164076431
 30       -0.0094040797
 31        0.0900903961
 32        0.2062640392
 33        0.1810253094
 34        0.0267506807
 35       -0.1407341381
 36        0.3837053224
 37       -0.0175780317
 38        0.0601095898
 39       -0.1726829441
 40        0.0105098869
 41        0.0041677876
 42       -0.0146776745
 43       -0.0052085189
 44        0.0134522771
 45        0.0268195988
 46        0.0325652683
 47        0.0627544194
 48        0.0968327260
 49        0.0555216034
 50        0.1688523479
 51        0.0342727352
 52       -0.0175067789
 53       -0.0599855799
 54       -0.0131582570
 55        0.0039868141
 56       -0.0140094905
 57        0.0100226764
 58       -0.0145020429
 59       -0.0008283834
 60       -0.0115736968
 Sym= A
 Ene= -0.95867728864608392     
 Spin= Alpha
 Occup= 1.0
  1        0.0262275735
  2        0.0792253266
  3        0.0122734480
  4        0.2273481521
  5        0.1740902166
  6       -0.2188166230
  7       -0.1028165549
  8       -0.0884299828
  9        0.1249197207
 10        0.0167398498
 11       -0.0026628683
 12       -0.0140769815
 13        0.0097469184
 14        0.0103461872
 15        0.0145703486
 16       -0.0932151242
 17       -0.2130536592
 18       -0.1822303996
 19       -0.2358418677
 20        0.1076553392
 21        0.0779087614
 22        0.1290297256
 23       -0.0465100296
 24       -0.0392603767
 25        0.0038193756
 26       -0.0063722500
 27        0.0025528744
 28       -0.0245298568
 29       -0.0074238052
 30        0.0000536399
 31        0.0313711331
 32        0.0933319525
 33        0.0127058025
 34        0.2975886313
 35        0.0563314398
 36        0.1730892871
 37       -0.1455352484
 38       -0.0179377238
 39       -0.1088729269
 40        0.0062748302
 41        0.0029829318
 42       -0.0092577620
 43        0.0171930764
 44       -0.0249513953
 45       -0.0034835721
 46       -0.0925654265
 47       -0.2114255358
 48       -0.1810669806
 49       -0.0900107217
 50       -0.2479817644
 51       -0.0619615371
 52        0.0576346359
 53        0.1275948637
 54        0.0285538176
 55       -0.0129077124
 56        0.0112321721
 57        0.0016755403
 58        0.0087482395
 59        0.0097257862
 60        0.0045904407
 Sym= A
 Ene= -0.91889518271210779     
 Spin= Alpha
 Occup= 1.0
  1        0.0971441473
  2        0.2418748628
  3        0.0953811800
  4       -0.3192753627
  5       -0.0952381784
  6       -0.1574202156
  7        0.1989590417
  8        0.0417799336
  9        0.1328358868
 10       -0.0128866110
 11        0.0041197218
 12        0.0087668892
 13       -0.0136719279
 14       -0.0077875012
 15       -0.0073024908
 16       -0.0104596365
 17       -0.0247664341
 18       -0.0208091852
 19        0.0327639426
 20       -0.0663581567
 21        0.2368498958
 22       -0.0137974316
 23        0.0297779056
 24       -0.1107976663
 25       -0.0048216010
 26       -0.0071785833
 27        0.0120001842
 28        0.0115694900
 29       -0.0192536622
 30        0.0175106525
 31       -0.0916329947
 32       -0.2286959005
 33       -0.0831563503
 34        0.2662460190
 35        0.1729043936
 36       -0.1899460993
 37       -0.1462454747
 38       -0.1163335292
 39        0.1541951269
 40        0.0086601172
 41       -0.0006650156
 42       -0.0079951017
 43        0.0189224549
 44       -0.0177335937
 45       -0.0036118411
 46        0.0050071424
 47        0.0119225134
 48        0.0081918464
 49        0.0679703969
 50       -0.0631286407
 51        0.2422329050
 52       -0.0319341526
 53        0.0275045936
 54       -0.1144709749
 55       -0.0008038590
 56        0.0099238755
 57       -0.0091200165
 58       -0.0085978183
 59       -0.0033334587
 60       -0.0294930051
 Sym= A
 Ene= -0.91226132322313347     
 Spin= Alpha
 Occup= 1.0
  1        0.0062247361
  2        0.0155337210
  3        0.0062288500
  4       -0.1122297951
  5        0.2300006118
  6        0.0873943889
  7        0.0574065572
  8       -0.1125770376
  9       -0.0390777421
 10       -0.0065545048
 11       -0.0027820099
 12        0.0093365146
 13        0.0146169366
 14       -0.0031744497
 15        0.0201944974
 16        0.1205648864
 17        0.2898943052
 18        0.1966956780
 19        0.2951576933
 20       -0.0333732537
 21       -0.0779970702
 22       -0.1752740227
 23        0.0383918482
 24        0.0531984651
 25       -0.0098589446
 26        0.0054861176
 27        0.0043728270
 28       -0.0019419769
 29        0.0068773542
 30        0.0029010876
 31       -0.0071631732
 32       -0.0174676296
 33       -0.0086647370
 34       -0.0881151297
 35        0.2789430432
 36        0.0995244261
 37        0.0429122937
 38       -0.1413701227
 39       -0.0465612408
 40       -0.0019804919
 41        0.0124345062
 42       -0.0104540142
 43        0.0020468989
 44        0.0107461870
 45       -0.0187880715
 46       -0.1191750866
 47       -0.2865635986
 48       -0.1941894570
 49       -0.1870087194
 50       -0.2487886340
 51       -0.0023027107
 52        0.0981705245
 53        0.1604152901
 54        0.0109002225
 55        0.0025753264
 56        0.0025756500
 57       -0.0051509763
 58        0.0174031150
 59        0.0008260618
 60       -0.0034642896
 Sym= A
 Ene= -0.89794576758684774     
 Spin= Alpha
 Occup= 1.0
  1        0.0007757585
  2        0.0023134461
  3       -0.0003252324
  4       -0.1373385115
  5        0.3592358229
  6        0.1361208910
  7        0.0799531293
  8       -0.2087416452
  9       -0.0778650024
 10       -0.0131994821
 11        0.0121945522
 12        0.0010049299
 13        0.0273449828
 14        0.0120464239
 15        0.0096810274
 16        0.0064384475
 17        0.0160689601
 18        0.0065839929
 19        0.0713483395
 20       -0.1101589118
 21        0.2627232962
 22       -0.0444636292
 23        0.0652154929
 24       -0.1528888868
 25       -0.0076960052
 26        0.0000024590
 27        0.0076935462
 28        0.0101132412
 29       -0.0311019427
 30       -0.0071076551
 31       -0.0027293678
 32       -0.0068872539
 33       -0.0007433071
 34        0.1562216287
 35       -0.3229849430
 36       -0.1365224630
 37       -0.0924645804
 38        0.1886857822
 39        0.0819851959
 40        0.0120757942
 41       -0.0142691364
 42        0.0021933422
 43       -0.0227012084
 44       -0.0165371118
 45        0.0013117233
 46       -0.0024321461
 47       -0.0059498660
 48       -0.0030473549
 49       -0.0960851113
 50        0.0820228145
 51       -0.2535087366
 52        0.0552647289
 53       -0.0471387207
 54        0.1502008266
 55        0.0065298593
 56       -0.0071175869
 57        0.0005877276
 58        0.0003668139
 59        0.0266230559
 60        0.0198552247
 Sym= A
 Ene= -0.88454915338943030     
 Spin= Alpha
 Occup= 1.0
  1        0.0362953200
  2        0.0896492953
  3        0.0399996559
  4       -0.1912421548
  5       -0.0514651609
  6        0.0232766626
  7        0.1314560023
  8        0.0372831886
  9       -0.0117180597
 10       -0.0031518146
 11       -0.0042810964
 12        0.0074329110
 13        0.0117596165
 14       -0.0062625869
 15       -0.0164741681
 16       -0.0422295663
 17       -0.0997298333
 18       -0.0600466717
 19        0.0988802808
 20        0.3987712085
 21        0.1202173688
 22       -0.0422539660
 23       -0.2287423036
 24       -0.0735437766
 25       -0.0149489922
 26        0.0201987826
 27       -0.0052497905
 28       -0.0128763639
 29       -0.0038057483
 30        0.0212047697
 31        0.0353159220
 32        0.0871796019
 33        0.0370299293
 34       -0.1671829415
 35       -0.0986223566
 36        0.0209106707
 37        0.1156296486
 38        0.0682452931
 39       -0.0183416435
 40        0.0048815582
 41       -0.0094690957
 42        0.0045875375
 43        0.0030852233
 44        0.0172407936
 45       -0.0053485577
 46       -0.0465100073
 47       -0.1103726553
 48       -0.0648779678
 49        0.3314516111
 50       -0.2108303295
 51       -0.1661588522
 52       -0.1802862808
 53        0.1342581050
 54        0.0977684776
 55       -0.0035929111
 56        0.0085059771
 57       -0.0049130660
 58       -0.0335208477
 59       -0.0112191191
 60        0.0208298759
 Sym= A
 Ene= -0.18102384956058379     
 Spin= Alpha
 Occup= 0.0
  1        0.0210386049
  2        0.0393592619
  3        0.1470036467
  4       -0.2633484988
  5       -0.2264293852
  6        0.3382662787
  7        0.2945112115
  8        0.2675455098
  9       -0.4156364375
 10        0.0038366714
 11        0.0031928425
 12       -0.0070295138
 13       -0.0074544396
 14        0.0083871584
 15        0.0150234781
 16        0.0015961364
 17        0.0039956007
 18        0.0081204709
 19       -0.0748061852
 20        0.0631061474
 21       -0.2436306698
 22        0.0857234082
 23       -0.0723046133
 24        0.2757918413
 25        0.0001397362
 26        0.0018140084
 27       -0.0019537446
 28       -0.0015883261
 29       -0.0003237872
 30       -0.0048762447
 31       -0.0227495182
 32       -0.0423978530
 33       -0.1534109881
 34        0.3990750906
 35        0.0585874059
 36        0.2657510473
 37       -0.4649924072
 38       -0.0598530419
 39       -0.3326859218
 40        0.0032678021
 41       -0.0075081311
 42        0.0042403289
 43        0.0014931557
 44        0.0189131151
 45       -0.0017485150
 46       -0.0001534338
 47        0.0000991362
 48       -0.0055052777
 49       -0.0411996212
 50        0.0719776975
 51       -0.2338262708
 52        0.0465157434
 53       -0.0836708694
 54        0.2642282279
 55       -0.0009485295
 56       -0.0012217079
 57        0.0021702374
 58        0.0018943567
 59       -0.0029230537
 60        0.0034314140
 Sym= A
 Ene= -0.14500379873634991     
 Spin= Alpha
 Occup= 0.0
  1        0.0035277174
  2        0.0092353318
  3        0.0237682788
  4        0.1394241973
  5       -0.3382102496
  6       -0.1210722791
  7       -0.1705054487
  8        0.4030187956
  9        0.1405476671
 10       -0.0047521029
 11        0.0037264957
 12        0.0010256072
 13        0.0100487299
 14        0.0042084174
 15        0.0039518627
 16       -0.0032395197
 17       -0.0074919738
 18       -0.0221208247
 19        0.1321885209
 20       -0.0736644741
 21        0.3743420162
 22       -0.1682063533
 23        0.0934270418
 24       -0.4645377466
 25        0.0010748956
 26       -0.0020227479
 27        0.0009478522
 28       -0.0004209048
 29        0.0048637111
 30        0.0030983098
 31       -0.0006158923
 32       -0.0007995872
 33       -0.0025481488
 34       -0.0996927725
 35        0.2775851867
 36        0.1179673366
 37        0.1129555201
 38       -0.3293806712
 39       -0.1417381664
 40        0.0033282047
 41       -0.0053114360
 42        0.0019832313
 43       -0.0064440006
 44       -0.0037283751
 45        0.0016363749
 46        0.0001538168
 47        0.0005962350
 48       -0.0027395309
 49       -0.1406603510
 50        0.1256327771
 51       -0.3621649841
 52        0.1682715168
 53       -0.1554823783
 54        0.4481948148
 55       -0.0009986231
 56       -0.0000357259
 57        0.0010343491
 58        0.0018738666
 59       -0.0055939117
 60       -0.0000031746
 Sym= A
 Ene= -0.14079068547021403     
 Spin= Alpha
 Occup= 0.0
  1        0.0025158043
  2        0.0060029337
  3        0.0189062748
  4        0.0774333447
  5       -0.2050491383
  6       -0.0650030081
  7       -0.1002195206
  8        0.2590882086
  9        0.0787224964
 10       -0.0028298931
 11        0.0013328192
 12        0.0014970739