 --invoking executable--
/usr/local/cfour/bin/xjoda


   *************************************************************************
         <<<     CCCCCC     CCCCCC   |||     CCCCCC     CCCCCC   >>>
       <<<      CCC        CCC       |||    CCC        CCC         >>>
      <<<      CCC        CCC        |||   CCC        CCC            >>>
    <<<        CCC        CCC        |||   CCC        CCC              >>>
      <<<      CCC        CCC        |||   CCC        CCC            >>>
       <<<      CCC        CCC       |||    CCC        CCC         >>>
         <<<     CCCCCC     CCCCCC   |||     CCCCCC     CCCCCC   >>>
   *************************************************************************

     ****************************************************************
     * CFOUR Coupled-Cluster techniques for Computational Chemistry *
     ****************************************************************


   Department of Chemistry                Institut fuer Physikalische Chemie
   University of Texas at Austin          Universitaet Mainz
   Austin, TX  78712, USA                 D-55099 Mainz, Germany

                       Version 2.00beta

                     kbob-G41MT-S2                                     
                     Вс. мая 17 10:26:23 KRAT 2015                
                     integer*8 version is running

********************************************************************************
*                          Input from ZMAT file                                *
********************************************************************************
test HF/def2-SVP energy                                                         
N       0.5200      0.5300      0.5100                                          
N      -0.5200     -0.5200      0.5200                                          
N      -0.5200      0.5200     -0.5200                                          
N       0.5200     -0.5200     -0.5200                                          
                                                                                
*CFOUR(CALC=HF                                                                  
SCF_CONV=9                                                                      
CHARGE=1                                                                        
MULT=2                                                                          
BASIS=svp                                                                       
COORD=CARTESIAN)                                                                
                                                                                
********************************************************************************
  @GTFLGS-I, Calculation type set to UHF.
    -------------------------------------------------------------------
                    CFOUR Control Parameters 
    -------------------------------------------------------------------
        External           Internal           Value            Units
          Name               Name
    -------------------------------------------------------------------
       ABCDTYPE             IABCDT         STANDARD     [  0]   ***   
       ANHARMONIC           IANHAR         OFF          [  0]   ***   
       ANH_ALGORIT          IANALG         STANDARD     [  0]   ***   
       ANH_DERIVAT          IANDER         SECOND       [  1]   ***   
       ANH_STEPSIZ          ICUBST             50000          x 10-6  
       ANH_SYMMETR          IANHSM         ABELIAN      [  0]   ***   
       AO_LADDERS           IAOLAD         SINGLEPASS   [  1]   ***   
       BASIS                IBASIS         svp          [ 28]   ***   
       BREIT                IBREIT         OFF          [  0]   ***   
       BRUCK_CONV           IBRTOL          10D-  4             ***   
       BRUECKNER            IBRKNR             OFF      [  0]   ***   
       BUFFERSIZE           IBUFFS            600               ***   
       CACHE_RECS           ICHREC             10               ***   
       CALCLEVEL            ICLLVL           SCF        [  0]   ***   
       CCORBOPT             ICCORB             OFF      [  0] x 0.01  
       CC_CONV              ICCCNV          10D-  7             ***   
       CC_EXPORDER          ICCEOR              0               ***   
       CC_EXTRAPOL          ICCEXT             DIIS     [  1]   ***   
       CC_MAXCYC            ICCCYC              0              cycles 
       CC_PROGRAM           ICCPRO         VCC          [  0]   ***   
       CHARGE               ICHRGE              1               ***   
       CHOLESKY             ICHOLE         OFF          [  0]   ***   
       CIS_CONV             ICISTL              5               ***   
       COMM_SIZE            IPSIZE            ***               ***   
       CONSTANT             ICONST         OLD          [  1]   ***   
       CONTINUUM            ICONTU         NONE         [  0]   ***   
       CONTRACTION          ICNTYP          GENERAL     [  1]   ***   
       COORDINATES          ICOORD         CARTESIAN    [  1]   ***   
       CPHF_CONVER          ICPHFT          10D- 16             ***   
       CPHF_MAXCYC          ICPHFC             64              cycles 
       CUBIC                ICUBIC         OFF          [  0]   ***   
       CURVILINEAR          ICURVY            OFF       [  0]   ***   
       DBOC                 IDBOC          OFF          [  0]   ***   
       DCT                  IDCT           OFF          [  0]   ***   
       DERIV_LEV            IDRLVL            ZERO      [  0]   ***   
       DIAG_MRCC            IEOMST          10D-  0             ***   
       DIFF_TYPE            IDIFTY         RELAXED      [  0]   ***   
       DIRECT               IDIRCT         OFF          [  0]   ***   
       DROPMO               IDRPMO      NONE         
       ECP                  IECP           OFF          [  0]   ***   
       EIGENVECTOR          IVEC                1               ***   
       EL_ANHARM            IELANH         OFF          [  0]   ***   
       EOMFOLLOW            IEOMSR         ENERGY       [  0]   ***   
       EOM_MRCC             IMRCCE         NEW          [  1]   ***   
       EOM_NONIT            EOMNON         OFF          [  0]   ***   
       EOM_NSING            IEOMSI          10D-  0             ***   
       EOM_NSTATES          IMRCCD         DAVIDSON     [  0]   ***   
       EOM_NTRIP            IEOMTR          10D-  0             ***   
       EOM_ORDER            IEXORD         ENERGY       [  0]   ***   
       ESTATE_CONV          IEXTOL          10D-  5             ***   
       ESTATE_DIAG          IEXDIG         ITERATIVE    [  0]   ***   
       ESTATE_LOCK          IESLOC         ON           [  1]   ***   
       ESTATE_MAXC          IEXMXC             20               ***   
       ESTATE_PROP          IEXPRP         OFF          [  0]   ***   
       EVAL_HESS            IRECAL              0            # of cyc.
       EXCITATION           IEXCIT              0               ***   
       EXCITE               IEXCIT         NONE         [  0]   ***   
       FCGRADNEW            IFCGNW         OFF          [  0]   ***   
       FC_FIELD             IFINFC              0             x 10-6  
       FD_CALTYPE           IFDCAL         GRADONLY     [  0]   ***   
       FD_PROJECT           IFDPRJ         OFF          [  1]   ***   
       FD_STEPSIZE          IDISFD              0            10-4 bohr
       FD_USEGROUP          IFDGRP         FULL         [  0]   ***   
       FILE_RECSIZ          IFLREC              4096           words  
       FINITE_PERT          IFIPER              0             x 10-6  
       FIXGEOM              IFIXGM         OFF          [  0]   ***   
       FOCK                 IFOCK          AO           [  1]   ***   
       FREQ_ALGORI          IVIALG         STANDARD     [  0]   ***   
       FROZEN_CORE          IFROCO         OFF          [  0]   ***   
       FROZEN_VIRT          IFROVI         OFF          [  0]   ***   
       GAMMA_ABCD           IGABCD         STORE        [  0]   ***   
       GAMMA_ABCI           IGABCI         STORE        [  0]   ***   
       GENBAS_1             IGNBS1              0               ***   
       GENBAS_2             IGNBS2              0               ***   
       GENBAS_3             IGNBS3              0               ***   
       GENBAS_4             IGNBS4              0               ***   
       GEO_CONV             ICONTL              5              H/bohr 
       GEO_MAXCYC           IOPTCY             50               ***   
       GEO_MAXSTEP          IMXSTP            300            millibohr
       GEO_METHOD           INR            SINGLE_POINT [  5]   ***   
       GIAO                 IGIAO          OFF          [  1]   ***   
       GIMIC                IGIMIC         OFF          [  0]   ***   
       GRID                 IGRID          OFF          [  0]   ***   
       GRID_ALGO            IGALGO         SERIAL       [  0]   ***   
       GUESS                IGUESS            MOREAD    [  0]   ***   
       HBAR                 IHBAR              OFF      [  0]   ***   
       HESS_TYPE            IHESTP         SCF          [  0]   ***   
       HF2_FILE             IHF2Fl         USE          [  1]   ***   
       HFSTABILITY          ISTABL         OFF          [  0]   ***   
       INCORE               INCORE             OFF      [  0]   ***   
       INPUT_MRCC           IMRCC          ON           [  1]   ***   
       INTEGRALS            INTTYP             VMOL     [  1]   ***   
       JODA_PRINT           IJPRNT              0               ***   
       LINDEP_TOL           ILINDP              8               ***   
       LINEQ_CONV           IZTACN          10D-  7           cycles  
       LINEQ_EXPOR          ILMAXD              5               ***   
       LINEQ_MAXCY          ILMAXC             50               ***   
       LINEQ_TYPE           ILTYPE         DIIS         [  1]   ***   
       LOCK_ORBOCC          ILOCOC             OFF      [  0]   ***   
       MEMORY_SIZE          IMEMSZ         100000000           words  
       MEM_UNIT             IMEMU          INTEGERWORDS [  0]   ***   
       MRCC                 IMRCCC         OFF          [  0]   ***   
       MULTIPLICTY          IMULTP              2               ***   
       NEGEVAL              IDIE             ABORT      [  0]   ***   
       NEWNORM              INEWNO         OFF          [  0]   ***   
       NON-HF               INONHF             OFF      [  0]   ***   
       NTOP_TAMP            ITOPT2             15               ***   
       NUC_MODEL            INUCMO         POINT        [  0]   ***   
       OCCUPATION           IOCCU   ESTIMATED BY SCF 
       OPEN-SHELL           IOPEN          SPIN-ORBITAL [  0]   ***   
       ORBITALS             IORBTP           STANDARD   [  0]   ***   
       PARALLEL             IPARAL         ON           [  1]   ***   
       PARA_INT             IPINTS         ON           [  1]   ***   
       PARA_PRINT           IPPRIN              0               ***   
       PERT_ORB             IPTORB         STANDARD     [  0]   ***   
       POINTS               IGRDFD              0               ***   
       PRINT                IPRNT               0               ***   
       PROPS                IPROPS             OFF      [  0]   ***   
       PROP_INTEGR          IINTYP         INTERNAL     [  0]   ***   
       PSI                  IPSI           OFF          [  0]   ***   
       QUARTIC              IQUART         OFF          [  0]   ***   
       RAMAN_INT            IRAMIN         OFF          [  0]   ***   
       RAMAN_ORB            IRAMRE         UNRELAXED    [  0]   ***   
       RDO                  IRDOFM             OFF      [  0]   ***   
       REFERENCE            IREFNC             UHF      [  1]   ***   
       RELATIVIST           IRELAT         OFF          [  0]   ***   
       RELAX_DENS           IRDENS             OFF      [  0]   ***   
       RESET_FLAGS          IRESET             OFF      [  0]   ***   
       RESTART_CC           ICCRES         OFF          [  0]   ***   
       ROT_EVEC             ROTVEC              0               ***   
       SAVE_INTS            ISVINT             OFF      [  0]   ***   
       SCALE_ON             ISTCRT              0               ***   
       SCF_CONV             ISCFCV          10D-  9             ***   
       SCF_DAMPING          IDAMP               0             x 10-3  
       SCF_EXPORDE          IRPPOR              6               ***   
       SCF_EXPSTAR          IRPPLS              8               ***   
       SCF_EXTRAPO          IRPP                ON      [  1]   ***   
       SCF_MAXCYC           ISCFCY            150              cycles 
       SCF_NOSTOP           ISCFST         OFF          [  0]   ***   
       SCF_PRINT            ISCFPR              0               ***   
       SD_FIELD             IFINSD              0             x 10-6  
       SEQUENCE             ISEQUE         OFF          [  0]   ***   
       SOPERT               IPERSO         OFF          [  0]   ***   
       SPHERICAL            IDFGHI             ON       [  1]   ***   
       SPINORBIT            ISOCAL         OFF          [  0]   ***   
       SPINROTATIO          ISRCON         OFF          [  0]   ***   
       SPIN_FLIP            ISPFLP         OFF          [  0]   ***   
       SPIN_ORBIT           ISPORB         OFF          [  0]   ***   
       SPIN_SCAL            ISCSMP         OFF          [  0]   ***   
       SUBGROUP             ISUBGP         DEFAULT      [  0]   ***   
       SUBGRPAXIS           ISBXYZ         X            [  0]   ***   
       SYMMETRY             ISYM             ON         [  0]   ***   
       SYM_CHECK            ISYMCK         OVERRIDE     [  1]   ***   
       T3_EXTRAPOL          IT3EXT         OFF          [  0]   ***   
       TAMP_SUM             IEVERY              0               ***   
       TESTSUITE            ITESTS         OFF          [  0]   ***   
       THERMOCH             ITHERM         OFF          [  0]   ***   
       TOL_CHOLESK          ITOLCH          10D-  4             ***   
       TRANGRAD             IRESRM         OFF          [  0]   ***   
       TRANS_INV            ITRAIN         USE          [  0]   ***   
       TREAT_PERT           ITREAT         SIMULTANEOUS [  0]   ***   
       UIJ_THRESHO          IUIJTH              1               ***   
       UNITS                IUNITS         ANGSTROM     [  0]   ***   
       UNOS                 IUNOS          OFF          [  0]   ***   
       UPDATE_HESS          IHUPDT         ON           [  1]   ***   
       VIBPHASE             ISETPH         STANDARD     [  0]   ***   
       VIBRATION            IVIB              NO        [  0]   ***   
       VIB_ALGORIT          IGEALG         STANDARD     [  0]   ***   
       VNATORB              IVNORB         OFF          [  0]   ***   
       VTRAN                IVTRAN         FULL/PARTIAL [  0]   ***   
       XFIELD               IXEFLD              0             x 10-6  
       XFORM_TOL            IXFTOL          10D- 11             ***   
       YFIELD               IYEFLD              0             x 10-6  
       ZFIELD               IZEFLD              0             x 10-6  
    -------------------------------------------------------------------
  @GETXYZ-I,     4 atoms read from ZMAT.
  1  N          7    14.00307
  2  N          7    14.00307
  3  N          7    14.00307
  4  N          7    14.00307
  1  N          7    14.00307
  2  N          7    14.00307
  3  N          7    14.00307
  4  N          7    14.00307
 factor:   60.199719999999999     
   Rotational constants (in cm-1): 
          0.5532377061             0.5564759291             0.5597913262
   Rotational constants (in MHz): 
      16585.6515012674         16682.7309988681         16782.1241148580
********************************************************************************
   The full molecular point group is C1  .
   The largest Abelian subgroup of the full molecular point group is C1  .
   The computational point group is C1  .
********************************************************************************
 ----------------------------------------------------------------
 Z-matrix   Atomic            Coordinates (in bohr)
  Symbol    Number           X              Y              Z
 ----------------------------------------------------------------
     N         7         1.21417130    -0.00000000     1.19291190
     N         7        -1.39027030     0.80233673     0.58212323
     N         7         0.58082277     0.80233673    -1.37739783
     N         7        -0.40472377    -1.60467345    -0.39763730
 ----------------------------------------------------------------
   Interatomic distance matrix (Angstroms) 

                 N             N             N             N    
                [ 1]        [ 2]        [ 3]        [ 4]
  N    [ 1]     0.00000
  N    [ 2]     1.47790     0.00000
  N    [ 3]     1.46376     1.47078     0.00000
  N    [ 4]     1.47085     1.47078     1.47078     0.00000
   Rotational constants (in cm-1): 
          0.5597913262             0.5564759291             0.5532377061
   Rotational constants (in MHz): 
      16782.1241148580         16682.7309988681         16585.6515012675
  @GTFLGS-I, Calculation type set to UHF.
  There are   56 basis functions.
 @GEOPT-W, Archive file not created for single-point calculation.
  @CHECKOUT-I, Total execution time (CPU/WALL):        0.93/       0.88 seconds.
--executable xjoda finished with status     0 in        0.93 seconds (walltime).
 --invoking executable--
/usr/local/cfour/bin/xvmol
 Serial version of molecule started
********************************************************************************
                    Input from MOL file
********************************************************************************
INTGRL        1    0    1    0    0    0    0    0    0                         
         *** CFOUR Program System (Release V0.1) ***                            
test HF/def2-SVP energy                                                         
    4    0            0.10E-08              0    0                              
   9999.00      3.00                                                            
          7.00000000    1    3    2    2    1                                   
N #1   1.214171296190524  -0.000000000000001   1.192911903543903                
    5    1                                                                      
   1712.8415852999999       -5.3933999999999996E-003                            
   257.64812680000000       -4.0221600000000003E-002                            
   58.458245900000001      -0.17931140000000001                                 
   16.198367900000001      -0.46376319999999999                                 
   5.0052601000000001      -0.44171420000000000                                 
    2    2                                                                      
  0.58731860000000002        1.0000000000000000        0.0000000000000000       
  0.18764590000000000        0.0000000000000000        1.0000000000000000       
    3    1                                                                      
   13.571470200000000       -4.0072400000000001E-002                            
   2.9257373000000002      -0.21807050000000000                                 
  0.79927749999999997      -0.51294470000000003                                 
    1    1                                                                      
  0.21954350000000000        1.0000000000000000                                 
    1    1                                                                      
   1.0000000000000000        1.0000000000000000                                 
          7.00000000    1    3    2    2    1                                   
N #2  -1.390270301014354   0.802336726367047   0.582123227501401                
    5    1                                                                      
   1712.8415852999999       -5.3933999999999996E-003                            
   257.64812680000000       -4.0221600000000003E-002                            
   58.458245900000001      -0.17931140000000001                                 
   16.198367900000001      -0.46376319999999999                                 
   5.0052601000000001      -0.44171420000000000                                 
    2    2                                                                      
  0.58731860000000002        1.0000000000000000        0.0000000000000000       
  0.18764590000000000        0.0000000000000000        1.0000000000000000       
    3    1                                                                      
   13.571470200000000       -4.0072400000000001E-002                            
   2.9257373000000002      -0.21807050000000000                                 
  0.79927749999999997      -0.51294470000000003                                 
    1    1                                                                      
  0.21954350000000000        1.0000000000000000                                 
    1    1                                                                      
   1.0000000000000000        1.0000000000000000                                 
          7.00000000    1    3    2    2    1                                   
N #3   0.580822770220657   0.802336726367085  -1.377397829863988                
    5    1                                                                      
   1712.8415852999999       -5.3933999999999996E-003                            
   257.64812680000000       -4.0221600000000003E-002                            
   58.458245900000001      -0.17931140000000001                                 
   16.198367900000001      -0.46376319999999999                                 
   5.0052601000000001      -0.44171420000000000                                 
    2    2                                                                      
  0.58731860000000002        1.0000000000000000        0.0000000000000000       
  0.18764590000000000        0.0000000000000000        1.0000000000000000       
    3    1                                                                      
   13.571470200000000       -4.0072400000000001E-002                            
   2.9257373000000002      -0.21807050000000000                                 
  0.79927749999999997      -0.51294470000000003                                 
    1    1                                                                      
  0.21954350000000000        1.0000000000000000                                 
    1    1                                                                      
   1.0000000000000000        1.0000000000000000                                 
          7.00000000    1    3    2    2    1                                   
N #4  -0.404723765396827  -1.604673452734131  -0.397637301181317                
    5    1                                                                      
   1712.8415852999999       -5.3933999999999996E-003                            
   257.64812680000000       -4.0221600000000003E-002                            
   58.458245900000001      -0.17931140000000001                                 
   16.198367900000001      -0.46376319999999999                                 
   5.0052601000000001      -0.44171420000000000                                 
    2    2                                                                      
  0.58731860000000002        1.0000000000000000        0.0000000000000000       
  0.18764590000000000        0.0000000000000000        1.0000000000000000       
    3    1                                                                      
   13.571470200000000       -4.0072400000000001E-002                            
   2.9257373000000002      -0.21807050000000000                                 
  0.79927749999999997      -0.51294470000000003                                 
    1    1                                                                      
  0.21954350000000000        1.0000000000000000                                 
    1    1                                                                      
   1.0000000000000000        1.0000000000000000                                 
FINISH                                                                          

********************************************************************************
 One- and two-electron integrals over symmetry-adapted AOs are calculated.

  Spherical harmonics are used.
  
  Integrals less than  0.10E-13 are neglected.

   Basis function not normalized: 
   Center (as ordered in MOL file):   1
   Angular Momentum type          : s
   Offset within angular momentum :  1
   <chi|chi>                      :    1.0100840115
   Basis function not normalized: 
   Center (as ordered in MOL file):   1
   Angular Momentum type          : p
   Offset within angular momentum :  1
   <chi|chi>                      :    1.4685447330
   Basis function not normalized: 
   Center (as ordered in MOL file):   2
   Angular Momentum type          : s
   Offset within angular momentum :  1
   <chi|chi>                      :    1.0100840115
   Basis function not normalized: 
   Center (as ordered in MOL file):   2
   Angular Momentum type          : p
   Offset within angular momentum :  1
   <chi|chi>                      :    1.4685447330
   Basis function not normalized: 
   Center (as ordered in MOL file):   3
   Angular Momentum type          : s
   Offset within angular momentum :  1
   <chi|chi>                      :    1.0100840115
   Basis function not normalized: 
   Center (as ordered in MOL file):   3
   Angular Momentum type          : p
   Offset within angular momentum :  1
   <chi|chi>                      :    1.4685447330
   Basis function not normalized: 
   Center (as ordered in MOL file):   4
   Angular Momentum type          : s
   Offset within angular momentum :  1
   <chi|chi>                      :    1.0100840115
   Basis function not normalized: 
   Center (as ordered in MOL file):   4
   Angular Momentum type          : p
   Offset within angular momentum :  1
   <chi|chi>                      :    1.4685447330
  Nuclear repulsion energy :  105.7779183141 a.u.
  required memory for a1 array               5002594  words 
  required memory for a2 array               2004428  words 
 @GETMEM-I,  Allocated      68 MB of main memory.
  @MOLECU-I, One electron integrals (CPU/WALL):        0.14/       0.10 seconds.
  @TWOEL-I,    1220049 integrals of symmetry type  I I I I
  @TWOEL-I, Total number of 2-e integrals    1220049.
  @MOLECU-I, Two electron integrals (CPU/WALL):        9.66/       6.12 seconds.
  @CHECKOUT-I, Total execution time (CPU/WALL):        9.86/       6.26 seconds.
--executable xvmol finished with status     0 in        6.27 seconds (walltime).
 --invoking executable--
/usr/local/cfour/bin/xvmol2ja
 @GETMEM-I,  Allocated     762 MB of main memory.
  @CHECKOUT-I, Total execution time (CPU/WALL):        0.01/       0.00 seconds.
--executable xvmol2ja finished with status     0 in        0.01 seconds (walltime).
 --invoking executable--
/usr/local/cfour/bin/xvscf
  There are   56 functions in the AO basis.

  There are 1 irreducible representations.

       Irrep        # of functions
         1                 56


  Parameters for SCF calculation: 
        SCF reference function:  UHF  
  Maximum number of iterations:  150
     Full symmetry point group: C1  
     Computational point group: C1  
        Initial density matrix: CORE                   
     SCF convergence tolerance: 10**(- 9)
  DIIS convergence acceleration:  ON
          Latest start for DIIS:   8
                     DIIS order:   6

  Memory information:     205655 words required.
  Fock matrices are constructed from AO integral file.
 @GETMEM-I,  Allocated       1 MB of main memory.
  Initialization and symmetry analysis required      0.002 seconds.

  @INITGES-I, Occupancies from core Hamiltonian:

          Alpha population by irrep:  14
           Beta population by irrep:  13


 total no. of electrons in initial guess :   0.0000000000000000     
 total no. of electrons in initial guess :   0.0000000000000000     
  --------------------------------------------------------------------
  Iteration         Total Energy            Largest Density Difference
  --------------------------------------------------------------------
       0           105.777918314137395              0.0000000000D+00
       1          -200.692570284330458              0.1082405755D+01
       2          -209.130562883484146              0.8357473838D+00
       3          -214.087575742841040              0.7743609911D+00
       4          -214.559244846220366              0.7075142722D+00
       5          -212.218205376733323              0.6787758328D+00
       6          -207.094071947696904              0.1359155815D+01
       7          -200.227483725364579              0.1934448194D+01
       8          -192.142908351739976              0.2385017510D+01
       9          -216.698193360617353              0.2009413245D+01
      10          -216.797894022894212              0.7941528732D-01
      11          -216.808783688516513              0.2466574191D-01
      12          -216.811381144470062              0.1417612091D-01
      13          -216.812752007402054              0.1203489862D-01
      14          -216.813223861571345              0.3977199817D-02
      15          -216.813522806083512              0.3084766732D-02
      16          -216.813692898757182              0.3357465557D-02
      17          -216.813812051150904              0.3547433784D-02
      18          -216.813920342093212              0.4083331056D-02
      19          -216.814014940535259              0.5121933891D-02
      20          -216.814044995628961              0.2323711181D-02
      21          -216.814060703027252              0.1547602312D-02
      22          -216.814068425745546              0.7754878460D-03
      23          -216.814072813454601              0.3970231003D-03
      24          -216.814081276149722              0.9285731916D-03
      25          -216.814090898440355              0.1173632592D-02
      26          -216.814094937634053              0.6568696598D-03
      27          -216.814098928487937              0.9515269977D-03
      28          -216.814100835171956              0.9006246510D-03
      29          -216.814101341037173              0.2374850607D-03
      30          -216.814101996338451              0.4010015801D-03
      31          -216.814102190796376              0.1989302272D-03
      32          -216.814102430763995              0.2214364454D-03
      33          -216.814102526899859              0.1087006468D-03
      34          -216.814102658690530              0.8725405397D-04
      35          -216.814102827740413              0.1416143686D-03
      36          -216.814103049588738              0.1758409585D-03
      37          -216.814103301706297              0.2820098345D-03
      38          -216.814103368914203              0.1045326561D-03
      39          -216.814103458316112              0.1370075212D-03
      40          -216.814103549934174              0.1444565754D-03
      41          -216.814103581030651              0.5962036661D-04
      42          -216.814103627807953              0.1464276072D-03
      43          -216.814103652140517              0.8814268587D-04
      44          -216.814103670071717              0.1102552942D-03
      45          -216.814103686341724              0.4208396820D-04
      46          -216.814103702053984              0.6188009908D-04
      47          -216.814103728258573              0.8372938172D-04
      48          -216.814103738335604              0.4150036986D-04
      49          -216.814103755731679              0.9959730178D-04
      50          -216.814103758776099              0.3010313692D-04
      51          -216.814103761379641              0.3817132986D-04
      52          -216.814103762588985              0.2275420545D-04
      53          -216.814103763087388              0.1478093576D-04
      54          -216.814103763589031              0.2104728579D-04
      55          -216.814103763658949              0.3809700305D-05
      56          -216.814103763721590              0.6362349877D-05
      57          -216.814103763747681              0.1873167550D-05
      58          -216.814103763766042              0.1115339986D-05
      59          -216.814103763784061              0.2023676108D-05
      60          -216.814103763790882              0.9032242506D-06
      61          -216.814103763802024              0.1774212737D-05
      62          -216.814103763808788              0.2770069789D-05
      63          -216.814103763811005              0.4007221560D-06
      64          -216.814103763811573              0.1032927355D-05
      65          -216.814103763814359              0.6537036971D-06
      66          -216.814103763813449              0.5026801332D-06
      67          -216.814103763814131              0.3387928219D-06
      68          -216.814103763813279              0.3323615767D-06
      69          -216.814103763817599              0.1961036239D-06
      70          -216.814103763817087              0.6938549061D-06
      71          -216.814103763814870              0.2298678851D-06
      72          -216.814103763816519              0.1590836320D-06
      73          -216.814103763815154              0.1254212319D-06
      74          -216.814103763815154              0.2280254336D-06
      75          -216.814103763815950              0.1139471753D-06
      76          -216.814103763816803              0.2538399854D-07
      77          -216.814103763814359              0.4129367826D-07
      78          -216.814103763816235              0.4876833630D-07
      79          -216.814103763816348              0.1073026895D-07
      80          -216.814103763816007              0.1768250955D-07
      81          -216.814103763817769              0.7718778963D-08
      82          -216.814103763816917              0.1667287035D-07
      83          -216.814103763816860              0.1111693119D-07
      84          -216.814103763816632              0.6094109911D-08
      85          -216.814103763815609              0.7306391048D-08
      86          -216.814103763816689              0.7157091558D-08
      87          -216.814103763817258              0.4711868560D-08

  SCF has converged.

 Density matrix saved to file den.dat
 total alpha spin electron number:   14.000000000000073     
 total  beta spin electron number:   13.000000000000075     
     E(SCF)=      -216.814103763816121              0.9645472268D-09

  Eigenvector printing suppressed.


       The average multiplicity is    2.0608323
  The expectation value of S**2 is    0.8117574

 @PUTMOS-I, Writing converged MOs to NEWMOS. 
 @PUTMOS-I, Symmetry   1 Full Blocks 14 Partial Blocksize   0



  ORBITAL EIGENVALUES (ALPHA)  (1H = 27.2113838 eV)

       MO #        E(hartree)               E(eV)           FULLSYM    COMPSYM
       ----   --------------------   --------------------   -------   ---------
    1     1         -16.1413979416        -439.2297747740       A         A (1)
    2     2         -16.1395878721        -439.1805202764       A         A (1)
    3     3         -16.0945081463        -437.9538385564       A         A (1)
    4     4         -16.0940531764        -437.9414581969       A         A (1)
    5     5          -2.0408971265         -55.5356350461       A         A (1)
    6     6          -1.4387768423         -39.1511088857       A         A (1)
    7     7          -1.3992939989         -38.0767260802       A         A (1)
    8     8          -1.3773675021         -37.4800757606       A         A (1)
    9     9          -1.0571850135         -28.7674671705       A         A (1)
   10    10          -0.9586772886         -26.0869356605       A         A (1)
   11    11          -0.9188951827         -25.0044095067       A         A (1)
   12    12          -0.9122613232         -24.8238930100       A         A (1)
   13    13          -0.8979457676         -24.4343469310       A         A (1)
   14    14          -0.8845491534         -24.0698065202       A         A (1)
  +++++++++++++++++++++++++++++++++++++++++++++++++++++++++++++++++++++++++++++
   15    15          -0.1810238496          -4.9259094509       A         A (1)
   16    16          -0.1450037987          -3.9457540227       A         A (1)
   17    17          -0.1407906855          -3.8311093806       A         A (1)
   18    18          -0.0564091977          -1.5349723295       A         A (1)
   19    19          -0.0512504660          -1.3945960999       A         A (1)
   20    20          -0.0273186757          -0.7433789708       A         A (1)
   21    21           0.4345585060          11.8249382977       A         A (1)
   22    22           0.5379976264          14.6396599058       A         A (1)
   23    23           0.5620087222          15.2930350489       A         A (1)
   24    24           0.5680953842          15.4586615458       A         A (1)
   25    25           0.5951280847          16.1942587336       A         A (1)
   26    26           0.6241955266          16.9852240522       A         A (1)
   27    27           0.6275764014          17.0772223337       A         A (1)
   28    28           0.6321988432          17.2030053718       A         A (1)
   29    29           0.6395320865          17.4025530714       A         A (1)
   30    30           0.7597551742          20.6739896538       A         A (1)
   31    31           0.7795698388          21.2131740970       A         A (1)
   32    32           0.7841146251          21.3368440234       A         A (1)
   33    33           0.7876509739          21.4330729662       A         A (1)
   34    34           0.9215033395          25.0753810610       A         A (1)
   35    35           0.9335585116          25.4034189771       A         A (1)
   36    36           0.9385570523          25.5394361854       A         A (1)
   37    37           1.5137119393          41.1901965717       A         A (1)
   38    38           1.5361614030          41.8010775464       A         A (1)
   39    39           1.5582561894          42.4023072596       A         A (1)
   40    40           1.7575621285          47.8256976659       A         A (1)
   41    41           1.7814800172          48.4765365161       A         A (1)
   42    42           2.0337141108          55.3401752474       A         A (1)
   43    43           2.1959407510          59.7545866195       A         A (1)
   44    44           2.2000166595          59.8654977303       A         A (1)
   45    45           2.2033568497          59.9563889277       A         A (1)
   46    46           2.2946735642          62.4412430960       A         A (1)
   47    47           2.3017807222          62.6346387008       A         A (1)
   48    48           2.3138353201          62.9626609899       A         A (1)
   49    49           2.5517507190          69.4366682269       A         A (1)
   50    50           2.5583299407          69.6156979525       A         A (1)
   51    51           2.9830595565          81.1731785483       A         A (1)
   52    52           2.9976432216          81.5700202583       A         A (1)
   53    53           3.0206504347          82.1960783635       A         A (1)
   54    54           3.1803592386          86.5419759250       A         A (1)
   55    55           3.2077380330          87.2869908098       A         A (1)
   56    56           3.2205579740          87.6358391445       A         A (1)



  ORBITAL EIGENVALUES ( BETA)  (1H = 27.2113838 eV)

       MO #        E(hartree)               E(eV)           FULLSYM    COMPSYM
       ----   --------------------   --------------------   -------   ---------
    1     1         -16.1185906433        -438.6091566256       A         A (1)
    2     2         -16.1178113129        -438.5879499675       A         A (1)
    3     3         -16.0985757785        -438.0645244573       A         A (1)
    4     4         -16.0980042370        -438.0489720214       A         A (1)
    5     5          -2.0103316445         -54.7039059824       A         A (1)
    6     6          -1.3803454740         -37.5611104977       A         A (1)
    7     7          -1.3528440858         -36.8127596679       A         A (1)
    8     8          -1.3213482447         -35.9557142447       A         A (1)
    9     9          -0.9967135181         -27.1219540979       A         A (1)
   10    10          -0.9120086737         -24.8170180673       A         A (1)
   11    11          -0.8871845430         -24.1415191177       A         A (1)
   12    12          -0.8852151023         -24.0879279113       A         A (1)
   13    13          -0.8812448818         -23.9798927169       A         A (1)
  +++++++++++++++++++++++++++++++++++++++++++++++++++++++++++++++++++++++++++++
   14    14          -0.4366580868         -11.8820707983       A         A (1)
   15    15          -0.1425831164          -3.8798839071       A         A (1)
   16    16          -0.1256617674          -3.4194305835       A         A (1)
   17    17          -0.0774593758          -2.1077768052       A         A (1)
   18    18          -0.0317495718          -0.8639497835       A         A (1)
   19    19          -0.0225965933          -0.6148845732       A         A (1)
   20    20          -0.0013472439          -0.0366603721       A         A (1)
   21    21           0.4563826744          12.4188041222       A         A (1)
   22    22           0.5735712157          15.6076664990       A         A (1)
   23    23           0.5782153197          15.7340389949       A         A (1)
   24    24           0.5891588627          16.0318279430       A         A (1)
   25    25           0.6279261388          17.0867391722       A         A (1)
   26    26           0.6293202379          17.1246745403       A         A (1)
   27    27           0.6365081963          17.3202688328       A         A (1)
   28    28           0.6392414413          17.3946442113       A         A (1)
   29    29           0.6626181710          18.0307573758       A         A (1)
   30    30           0.7801974810          21.2302531104       A         A (1)
   31    31           0.7882437717          21.4492038156       A         A (1)
   32    32           0.7946109314          21.6224630421       A         A (1)
   33    33           0.8016173180          21.8131165157       A         A (1)
   34    34           0.9360046396          25.4699815053       A         A (1)
   35    35           0.9390990074          25.5541835345       A         A (1)
   36    36           0.9460495062          25.7433162268       A         A (1)
   37    37           1.5557548324          42.3342418746       A         A (1)
   38    38           1.5630664257          42.5332004462       A         A (1)
   39    39           1.5685713243          42.6829963548       A         A (1)
   40    40           1.7880613947          48.6556249030       A         A (1)
   41    41           1.8078635292          49.1944683872       A         A (1)
   42    42           2.0490840018          55.7584112508       A         A (1)
   43    43           2.2172089109          60.3333226829       A         A (1)
   44    44           2.2208388208          60.4320975535       A         A (1)
   45    45           2.2255931041          60.5614681818       A         A (1)
   46    46           2.3191655770          63.1077046574       A         A (1)
   47    47           2.3249399449          63.2648331989       A         A (1)
   48    48           2.3301430305          63.4064163574       A         A (1)
   49    49           2.5679578755          69.8776873840       A         A (1)
   50    50           2.5777709066          70.1447135373       A         A (1)
   51    51           3.0125370795          81.9753027418       A         A (1)
   52    52           3.0138764880          82.0117498987       A         A (1)
   53    53           3.0197723242          82.1721837612       A         A (1)
   54    54           3.2116027834          87.3921560150       A         A (1)
   55    55           3.2201948621          87.6259583654       A         A (1)
   56    56           3.2252468134          87.7634289522       A         A (1)


  VSCF finished.

  @CHECKOUT-I, Total execution time (CPU/WALL):        9.31/       5.92 seconds.
--executable xvscf finished with status     0 in        5.93 seconds (walltime).
  The final electronic energy is      -216.814103763816121 a.u. 
  This computation required                           13.17 seconds (walltime).
