[Molden Format]
[GTO]
    1 0
 s   7 1.00
    1712.8415853   -0.0053934100
     257.6481268   -0.0402215800
      58.4582458   -0.1793114500
      16.1983679   -0.4637631800
       5.0052601   -0.4417142300
       0.5873186    0.0000000000
       0.1876459    0.0000000000
 s   7 1.00
    1712.8415853    0.0000000000
     257.6481268    0.0000000000
      58.4582458    0.0000000000
      16.1983679    0.0000000000
       5.0052601    0.0000000000
       0.5873186    1.0000000000
       0.1876459    0.0000000000
 s   7 1.00
    1712.8415853    0.0000000000
     257.6481268    0.0000000000
      58.4582458    0.0000000000
      16.1983679    0.0000000000
       5.0052601    0.0000000000
       0.5873186    0.0000000000
       0.1876459    1.0000000000
 p   4 1.00
      13.5714702   -0.0400724000
       2.9257373   -0.2180704500
       0.7992775   -0.5129446600
       0.2195435    0.0000000000
 p   4 1.00
      13.5714702    0.0000000000
       2.9257373    0.0000000000
       0.7992775    0.0000000000
       0.2195435    1.0000000000
 d   1 1.00
       1.0000000    1.0000000000

    2 0
 s   7 1.00
    1712.8415853   -0.0053934100
     257.6481268   -0.0402215800
      58.4582458   -0.1793114500
      16.1983679   -0.4637631800
       5.0052601   -0.4417142300
       0.5873186    0.0000000000
       0.1876459    0.0000000000
 s   7 1.00
    1712.8415853    0.0000000000
     257.6481268    0.0000000000
      58.4582458    0.0000000000
      16.1983679    0.0000000000
       5.0052601    0.0000000000
       0.5873186    1.0000000000
       0.1876459    0.0000000000
 s   7 1.00
    1712.8415853    0.0000000000
     257.6481268    0.0000000000
      58.4582458    0.0000000000
      16.1983679    0.0000000000
       5.0052601    0.0000000000
       0.5873186    0.0000000000
       0.1876459    1.0000000000
 p   4 1.00
      13.5714702   -0.0400724000
       2.9257373   -0.2180704500
       0.7992775   -0.5129446600
       0.2195435    0.0000000000
 p   4 1.00
      13.5714702    0.0000000000
       2.9257373    0.0000000000
       0.7992775    0.0000000000
       0.2195435    1.0000000000
 d   1 1.00
       1.0000000    1.0000000000

    3 0
 s   7 1.00
    1712.8415853   -0.0053934100
     257.6481268   -0.0402215800
      58.4582458   -0.1793114500
      16.1983679   -0.4637631800
       5.0052601   -0.4417142300
       0.5873186    0.0000000000
       0.1876459    0.0000000000
 s   7 1.00
    1712.8415853    0.0000000000
     257.6481268    0.0000000000
      58.4582458    0.0000000000
      16.1983679    0.0000000000
       5.0052601    0.0000000000
       0.5873186    1.0000000000
       0.1876459    0.0000000000
 s   7 1.00
    1712.8415853    0.0000000000
     257.6481268    0.0000000000
      58.4582458    0.0000000000
      16.1983679    0.0000000000
       5.0052601    0.0000000000
       0.5873186    0.0000000000
       0.1876459    1.0000000000
 p   4 1.00
      13.5714702   -0.0400724000
       2.9257373   -0.2180704500
       0.7992775   -0.5129446600
       0.2195435    0.0000000000
 p   4 1.00
      13.5714702    0.0000000000
       2.9257373    0.0000000000
       0.7992775    0.0000000000
       0.2195435    1.0000000000
 d   1 1.00
       1.0000000    1.0000000000

    4 0
 s   7 1.00
    1712.8415853   -0.0053934100
     257.6481268   -0.0402215800
      58.4582458   -0.1793114500
      16.1983679   -0.4637631800
       5.0052601   -0.4417142300
       0.5873186    0.0000000000
       0.1876459    0.0000000000
 s   7 1.00
    1712.8415853    0.0000000000
     257.6481268    0.0000000000
      58.4582458    0.0000000000
      16.1983679    0.0000000000
       5.0052601    0.0000000000
       0.5873186    1.0000000000
       0.1876459    0.0000000000
 s   7 1.00
    1712.8415853    0.0000000000
     257.6481268    0.0000000000
      58.4582458    0.0000000000
      16.1983679    0.0000000000
       5.0052601    0.0000000000
       0.5873186    0.0000000000
       0.1876459    1.0000000000
 p   4 1.00
      13.5714702   -0.0400724000
       2.9257373   -0.2180704500
       0.7992775   -0.5129446600
       0.2195435    0.0000000000
 p   4 1.00
      13.5714702    0.0000000000
       2.9257373    0.0000000000
       0.7992775    0.0000000000
       0.2195435    1.0000000000
 d   1 1.00
       1.0000000    1.0000000000

[SCFCONV]
scf-first  1  THROUGH  11
     -216.5615023442
     -217.2643659841
     -217.3106886778
     -217.3138140353
     -217.3139840021
     -217.3140020464
     -217.3140076202
     -217.3140080387
     -217.3140080410
     -217.3140080416
     -217.3140080417
[TITLE]
*** Dalton interface to Molden, wave function type : HF            21Jan18   18:
[Atoms] AU
N          1     7        -1.2141710420         0.0000000000         1.192911653
N          2     7         1.3902700099        -0.8023365584         0.582123105
N          3     7        -0.5808226486        -0.8023365584        -1.377397541
N          4     7         0.4047236807         1.6046731167        -0.397637217
[5D7F]
[9G]
[MO]
Sym= A
Ene=  -15.7527
Spin= Alpha
Occup=  2.0000
    1       -0.501522
    2        0.017072
    3       -0.004739
    4       -0.001456
    6        0.001439
    7       -0.001676
    8       -0.000008
    9        0.001700
   10       -0.000169
   11        0.000637
   12       -0.000004
   13       -0.000328
   15       -0.506816
   16        0.017209
   17       -0.004734
   18        0.001679
   19       -0.000971
   20        0.000708
   21        0.001893
   22       -0.001114
   23        0.000831
   24        0.000247
   25       -0.000348
   26        0.000204
   27       -0.000277
   28        0.000485
   29       -0.483025
   30        0.016504
   31       -0.004422
   32       -0.000675
   33       -0.000936
   34       -0.001606
   35       -0.000787
   36       -0.001104
   37       -0.001883
   38       -0.000376
   39       -0.000360
   40       -0.000500
   41        0.000057
   42       -0.000205
   43       -0.490904
   44        0.016724
   45       -0.004476
   46        0.000477
   47        0.001891
   48       -0.000468
   49        0.000541
   50        0.002172
   51       -0.000527
   52        0.000316
   53        0.000074
   54        0.000300
   55        0.000532
   56       -0.000278
Sym= A
Ene=  -15.7521
Spin= Alpha
Occup=  2.0000
    1        0.589202
    2       -0.019366
    3        0.014820
    4        0.001665
    5       -0.000044
    6       -0.001535
    7        0.004680
    8       -0.000738
    9       -0.002519
   10        0.000302
   11        0.000318
   12       -0.000081
   13       -0.000484
   14        0.000278
   15       -0.782043
   16        0.025654
   17       -0.019751
   18        0.002460
   19       -0.001399
   20        0.000992
   21        0.005973
   22       -0.002940
   23        0.001564
   24       -0.000282
   25        0.000087
   26       -0.000047
   27        0.000410
   28       -0.000408
   29        0.134369
   30       -0.004430
   31        0.003342
   32        0.000317
   33        0.000183
   34        0.000393
   35        0.002479
   36       -0.000367
   37        0.000602
   38        0.000181
   39       -0.000712
   40        0.000241
   41       -0.000335
   42       -0.000082
   43        0.073229
   44       -0.002403
   45        0.001737
   46        0.000081
   47       -0.000306
   48        0.000061
   49        0.002107
   50       -0.001137
   51        0.000055
   52        0.000142
   53       -0.000347
   54        0.000110
   55        0.000327
   56        0.000668
Sym= A
Ene=  -15.7520
Spin= Alpha
Occup=  2.0000
    1        0.493554
    2       -0.016198
    3        0.012534
    4        0.001330
    5        0.000118
    6       -0.001371
    7        0.002707
    8        0.001809
    9       -0.003342
   10       -0.000171
   11        0.000419
   12        0.000407
   13        0.000056
   14       -0.000485
   15        0.295818
   16       -0.009685
   17        0.007481
   18       -0.000847
   19        0.000634
   20       -0.000457
   21       -0.000799
   22        0.002638
   23       -0.001869
   24        0.000026
   25       -0.000316
   26        0.000417
   27        0.000567
   28        0.000260
   29       -0.002815
   30        0.000087
   31        0.000060
   32        0.000039
   33        0.000111
   34       -0.000105
   35        0.000627
   36        0.001811
   37       -0.001269
   38        0.000608
   39       -0.000073
   40       -0.000185
   41        0.000404
   42       -0.000382
   43       -0.806873
   44        0.026501
   45       -0.020267
   46        0.000744
   47        0.002926
   48       -0.000784
   49        0.001748
   50        0.006324
   51       -0.002400
   52       -0.000175
   53       -0.000190
   54       -0.000463
   55       -0.000323
   56        0.000212
Sym= A
Ene=  -15.7520
Spin= Alpha
Occup=  2.0000
    1        0.374177
    2       -0.012266
    3        0.009545
    4        0.000948
    5       -0.000088
    6       -0.001117
    7        0.001108
    8       -0.001233
    9       -0.003476
   10       -0.000656
   11        0.000210
   12       -0.000429
   13        0.000080
   14        0.000189
   15        0.162303
   16       -0.005312
   17        0.004210
   18       -0.000518
   19        0.000201
   20       -0.000329
   21       -0.001262
   22       -0.000768
   23       -0.002230
   24       -0.000347
   25       -0.000661
   26       -0.000028
   27       -0.000263
   28       -0.000241
   29       -0.854924
   30        0.028114
   31       -0.021539
   32       -0.001097
   33       -0.001575
   34       -0.002715
   35       -0.002186
   36       -0.003620
   37       -0.006043
   38        0.000358
   39        0.000181
   40        0.000465
   41       -0.000109
   42        0.000158
   43        0.291367
   44       -0.009566
   45        0.007521
   46       -0.000284
   47       -0.001090
   48        0.000126
   49       -0.000881
   50       -0.002883
   51       -0.001482
   52        0.000252
   53       -0.000256
   54       -0.000574
   55        0.000361
   56       -0.000283
Sym= A
Ene=   -1.6678
Spin= Alpha
Occup=  2.0000
    1       -0.130043
    2       -0.262056
    3       -0.070310
    4        0.095995
    5       -0.000012
    6       -0.096402
    7       -0.026863
    8       -0.000001
    9        0.026622
   10       -0.005714
   11        0.020082
   12       -0.000046
   13       -0.010089
   14       -0.000043
   15       -0.129180
   16       -0.260400
   17       -0.069258
   18       -0.109729
   19        0.063575
   20       -0.046813
   21        0.030255
   22       -0.017595
   23        0.012793
   24        0.007504
   25       -0.011220
   26        0.006473
   27       -0.008780
   28        0.015263
   29       -0.130906
   30       -0.263709
   31       -0.071430
   32        0.046123
   33        0.064688
   34        0.111486
   35       -0.013052
   36       -0.018079
   37       -0.031274
   38       -0.011443
   39       -0.011090
   40       -0.015528
   41        0.002129
   42       -0.006462
   43       -0.130032
   44       -0.262034
   45       -0.070331
   46       -0.032474
   47       -0.128250
   48        0.031644
   49        0.008895
   50        0.035667
   51       -0.008942
   52        0.009771
   53        0.002231
   54        0.008836
   55        0.016672
   56       -0.009015
Sym= A
Ene=   -1.0459
Spin= Alpha
Occup=  2.0000
    1       -0.159543
    2       -0.338200
    3       -0.307848
    4       -0.089769
    5       -0.027671
    6       -0.107147
    7       -0.019868
    8        0.006970
    9        0.071245
   10       -0.020690
   11        0.003239
   12       -0.004911
   13        0.009228
   14        0.001362
   15        0.171030
   16        0.362434
   17        0.329763
   18       -0.065256
   19       -0.100825
   20        0.052312
   21       -0.036318
   22        0.057188
   23       -0.036492
   24        0.001511
   25        0.004850
   26       -0.010532
   27       -0.016243
   28       -0.008477
   29       -0.093533
   30       -0.198286
   31       -0.180947
   32       -0.166636
   33        0.014079
   34        0.069853
   35        0.031184
   36       -0.020758
   37       -0.047476
   38       -0.016167
   39        0.019464
   40       -0.008181
   41        0.008587
   42        0.009768
   43        0.083399
   44        0.176692
   45        0.161628
   46       -0.175886
   47        0.045541
   48       -0.019748
   49        0.038187
   50       -0.042466
   51        0.012728
   52       -0.001490
   53        0.007805
   54       -0.006129
   55       -0.013141
   56       -0.024971
Sym= A
Ene=   -1.0425
Spin= Alpha
Occup=  2.0000
    1        0.043943
    2        0.093157
    3        0.085554
    4       -0.002205
    5       -0.193351
    6        0.001569
    7        0.012372
    8        0.050886
    9       -0.012722
   10       -0.001212
   11       -0.002576
   12       -0.022097
   13       -0.002073
   14        0.022245
   15       -0.121143
   16       -0.256821
   17       -0.234944
   18       -0.063169
   19       -0.140292
   20       -0.064702
   21        0.054391
   22        0.014822
   23        0.033077
   24       -0.006480
   25       -0.013225
   26       -0.004520
   27       -0.019523
   28       -0.011365
   29       -0.120557
   30       -0.255557
   31       -0.235533
   32        0.064525
   33       -0.141725
   34        0.064095
   35       -0.032933
   36        0.015238
   37       -0.055267
   38       -0.013787
   39       -0.013164
   40        0.011505
   41       -0.015640
   42        0.004523
   43        0.197758
   44        0.419226
   45        0.384933
   46        0.070345
   47       -0.022007
   48       -0.068647
   49       -0.036741
   50       -0.066471
   51        0.035966
   52        0.002233
   53       -0.007185
   54       -0.010170
   55        0.004258
   56        0.010455
Sym= A
Ene=   -1.0391
Spin= Alpha
Occup=  2.0000
    1       -0.159064
    2       -0.337222
    3       -0.312274
    4        0.103513
    5       -0.025676
    6        0.093508
    7       -0.071499
    8        0.007076
    9        0.019190
   10        0.018520
   11        0.002754
   12       -0.001322
   13       -0.013206
   14        0.004638
   15       -0.094605
   16       -0.200548
   17       -0.185234
   18       -0.067053
   19        0.014098
   20        0.164672
   21        0.047824
   22       -0.021022
   23       -0.031102
   24        0.015619
   25        0.018969
   26       -0.009510
   27       -0.009532
   28        0.008140
   29        0.170917
   30        0.362464
   31        0.335809
   32       -0.051427
   33       -0.100650
   34        0.069587
   35        0.036073
   36        0.058311
   37        0.035923
   38       -0.015234
   39        0.004584
   40        0.008278
   41       -0.006879
   42        0.010489
   43        0.081389
   44        0.172641
   45        0.159073
   46        0.019598
   47        0.043934
   48        0.178752
   49       -0.012672
   50       -0.041279
   51       -0.040106
   52       -0.010441
   53        0.008005
   54        0.025283
   55       -0.007685
   56        0.006141
Sym= A
Ene=   -0.6941
Spin= Alpha
Occup=  2.0000
    1       -0.064210
    2       -0.128755
    3       -0.184246
    4       -0.206390
    5       -0.000004
    6        0.202864
    7        0.100373
    8        0.000006
    9       -0.098009
   10        0.008487
   11       -0.031166
   12       -0.000109
   13        0.015879
   14       -0.000107
   15       -0.064197
   16       -0.128785
   17       -0.184643
   18        0.233976
   19       -0.134960
   20        0.097970
   21       -0.113070
   22        0.065279
   23       -0.047112
   24       -0.011626
   25        0.017166
   26       -0.009964
   27        0.013776
   28       -0.023773
   29       -0.064208
   30       -0.128690
   31       -0.183768
   32       -0.099739
   33       -0.137855
   34       -0.236617
   35        0.048733
   36        0.066982
   37        0.115073
   38        0.017652
   39        0.017463
   40        0.024015
   41       -0.003399
   42        0.010112
   43       -0.064208
   44       -0.128748
   45       -0.184236
   46        0.068892
   47        0.272808
   48       -0.067551
   49       -0.033210
   50       -0.132243
   51        0.032937
   52       -0.015031
   53       -0.003465
   54       -0.013725
   55       -0.025951
   56        0.013986
Sym= A
Ene=   -0.5781
Spin= Alpha
Occup=  2.0000
    1        0.072110
    2        0.167324
    3        0.125738
    4        0.017845
    5        0.099762
    6       -0.282823
    7       -0.041521
    8       -0.053917
    9        0.184514
   10       -0.022192
   11        0.004044
   12        0.012080
   13        0.005827
   14       -0.004930
   15       -0.118339
   16       -0.274891
   17       -0.206071
   18        0.246074
   19       -0.172526
   20        0.184127
   21       -0.193146
   22        0.127324
   23       -0.124706
   24        0.002459
   25        0.008921
   26       -0.007696
   27        0.000972
   28       -0.006804
   29        0.023759
   30        0.055050
   31        0.041607
   32       -0.202161
   33        0.162155
   34        0.076461
   35        0.104205
   36       -0.094904
   37       -0.053066
   38       -0.002351
   39        0.016594
   40       -0.016122
   41        0.017512
   42        0.012658
   43        0.021952
   44        0.050859
   45        0.038769
   46       -0.258308
   47       -0.000480
   48        0.001944
   49        0.141774
   50        0.012802
   51       -0.004020
   52        0.005588
   53        0.001429
   54        0.000172
   55       -0.015272
   56       -0.026417
Sym= A
Ene=   -0.5770
Spin= Alpha
Occup=  2.0000
    1       -0.070503
    2       -0.163786
    3       -0.122133
    4       -0.142743
    5        0.215121
    6        0.148177
    7        0.108756
    8       -0.116388
    9       -0.111455
   10       -0.001092
   11       -0.008403
   12        0.018533
   13       -0.001981
   14       -0.017440
   15       -0.026104
   16       -0.060640
   17       -0.045549
   18        0.200854
   19        0.146387
   20       -0.060303
   21       -0.120982
   22       -0.070738
   23        0.027066
   24       -0.012950
   25        0.000668
   26        0.010351
   27        0.022532
   28        0.012110
   29       -0.021903
   30       -0.050884
   31       -0.037588
   32        0.070144
   33        0.166855
   34       -0.207848
   35       -0.033229
   36       -0.084260
   37        0.124642
   38        0.027501
   39       -0.000042
   40       -0.012508
   41        0.001733
   42       -0.010825
   43        0.118501
   44        0.275321
   45        0.205165
   46       -0.045879
   47       -0.348922
   48        0.024831
   49        0.043386
   50        0.259174
   51       -0.030210
   52        0.006763
   53        0.000376
   54       -0.002090
   55        0.011434
   56       -0.000100
Sym= A
Ene=   -0.5758
Spin= Alpha
Occup=  2.0000
    1        0.070420
    2        0.163822
    3        0.120976
    4        0.273289
    5        0.112227
    6       -0.014177
    7       -0.179873
    8       -0.060713
    9        0.039424
   10        0.016043
   11        0.003650
   12        0.005266
   13       -0.015625
   14       -0.013212
   15        0.023710
   16        0.055227
   17        0.040604
   18       -0.071414
   19        0.162700
   20        0.192506
   21        0.051295
   22       -0.094855
   23       -0.099001
   24        0.015889
   25        0.015530
   26       -0.012429
   27        0.007197
   28        0.016122
   29       -0.118223
   30       -0.274735
   31       -0.203376
   32       -0.176108
   33       -0.177205
   34       -0.248753
   35        0.121121
   36        0.132199
   37        0.195976
   38       -0.000240
   39        0.008099
   40        0.006542
   41        0.002040
   42        0.007849
   43        0.024607
   44        0.057323
   45        0.041765
   46       -0.006590
   47       -0.008854
   48        0.272289
   49        0.007587
   50        0.020024
   51       -0.152028
   52       -0.015665
   53        0.002442
   54        0.027245
   55       -0.002660
   56       -0.000282
Sym= A
Ene=   -0.5497
Spin= Alpha
Occup=  2.0000
    1        0.002080
    2        0.005465
    3        0.001288
    4        0.165177
    5        0.230304
    6        0.159076
    7       -0.110945
    8       -0.152735
    9       -0.104097
   10        0.022905
   11        0.007824
   12        0.024154
   13        0.002013
   14       -0.002583
   15       -0.001233
   16       -0.002727
   17       -0.002022
   18       -0.152361
   19       -0.298787
   20       -0.036013
   21        0.100134
   22        0.197588
   23        0.023699
   24       -0.015683
   25       -0.006996
   26       -0.018909
   27       -0.023982
   28       -0.003265
   29        0.001172
   30        0.003225
   31        0.000334
   32        0.302855
   33       -0.022765
   34       -0.110063
   35       -0.201699
   36        0.014387
   37        0.072141
   38        0.015898
   39       -0.029068
   40        0.008153
   41        0.002492
   42        0.002442
   43       -0.002242
   44       -0.005199
   45       -0.003120
   46       -0.323664
   47        0.086407
   48       -0.011486
   49        0.213910
   50       -0.058382
   51        0.007891
   52       -0.011238
   53        0.020536
   54       -0.009282
   55       -0.004403
   56       -0.024063
Sym= A
Ene=   -0.5444
Spin= Alpha
Occup=  2.0000
    1       -0.001754
    2       -0.004713
    3       -0.000710
    4       -0.169945
    5        0.235907
    6       -0.165394
    7        0.115040
    8       -0.157854
    9        0.109349
   10       -0.010179
   11        0.007502
   12        0.002829
   13        0.021207
   14       -0.024484
   15       -0.001004
   16       -0.002836
   17       -0.000083
   18        0.123286
   19       -0.019288
   20       -0.312492
   21       -0.083298
   22        0.013518
   23        0.208244
   24       -0.007090
   25       -0.029052
   26       -0.001606
   27        0.016071
   28       -0.008141
   29        0.001135
   30        0.002490
   31        0.001884
   32        0.040243
   33       -0.282896
   34        0.152345
   35       -0.027096
   36        0.189663
   37       -0.102673
   38       -0.011360
   39       -0.006771
   40        0.002014
   41       -0.025508
   42        0.018437
   43        0.001816
   44        0.004207
   45        0.002413
   46        0.007604
   47        0.070663
   48        0.317850
   49       -0.004833
   50       -0.046324
   51       -0.213167
   52        0.003091
   53        0.020369
   54        0.022974
   55       -0.011650
   56        0.009191
Sym= A
Ene=    0.1840
Spin= Alpha
Occup=  0.0000
    1       -0.003962
    2       -0.009408
    3       -0.029963
    4        0.233135
    5       -0.307467
    6        0.215598
    7       -0.342507
    8        0.443820
    9       -0.305497
   10       -0.001350
   11        0.004196
   12       -0.001938
   13        0.007810
   14       -0.008889
   15        0.003308
   16        0.007773
   17        0.025874
   18        0.209433
   19        0.067765
   20       -0.367943
   21       -0.308423
   22       -0.093922
   23        0.529629
   24       -0.002068
   25        0.009675
   26        0.001177
   27       -0.007254
   28        0.002724
   29        0.000710
   30        0.001699
   31        0.005191
   32       -0.163426
   33        0.129288
   34       -0.009606
   35        0.228448
   36       -0.183042
   37        0.016651
   38        0.000772
   39       -0.003179
   40        0.000273
   41       -0.001484
   42        0.003309
   43       -0.000067
   44       -0.000109
   45       -0.001112
   46       -0.251573
   47        0.100078
   48        0.150395
   49        0.354897
   50       -0.140995
   51       -0.213265
   52        0.001635
   53       -0.007432
   54        0.000164
   55        0.000775
   56        0.001511
Sym= A
Ene=    0.1860
Spin= Alpha
Occup=  0.0000
    1       -0.000735
    2       -0.001742
    3       -0.005610
    4        0.042464
    5        0.009943
    6        0.039209
    7       -0.062314
    8       -0.012618
    9       -0.055395
   10       -0.000587
   11        0.000335
   12       -0.001026
   13        0.000761
   14       -0.000886
   15        0.000525
   16        0.001101
   17        0.005684
   18        0.164318
   19        0.352457
   20        0.102196
   21       -0.238297
   22       -0.505960
   23       -0.146612
   24       -0.006333
   25       -0.002778
   26       -0.006954
   27       -0.004931
   28        0.001089
   29        0.000533
   30        0.001121
   31        0.005818
   32        0.095289
   33       -0.361491
   34        0.166569
   35       -0.138117
   36        0.523554
   37       -0.238798
   38        0.000963
   39        0.002956
   40        0.001525
   41        0.008443
   42       -0.007441
   43       -0.000322
   44       -0.000479
   45       -0.005892
   46       -0.298457
   47       -0.005441
   48       -0.311591
   49        0.429955
   50        0.010507
   51        0.449736
   52        0.006256
   53        0.000486
   54        0.006992
   55       -0.003786
   56        0.006710
Sym= A
Ene=    0.1879
Spin= Alpha
Occup=  0.0000
    1       -0.003893
    2       -0.009217
    3       -0.029957
    4        0.221337
    5        0.316020
    6        0.204084
    7       -0.324735
    8       -0.455179
    9       -0.287844
   10       -0.007215
   11       -0.003151
   12       -0.008211
   13       -0.003438
   14       -0.001470
   15        0.000842
   16        0.002057
   17        0.005733
   18       -0.014388
   19       -0.145486
   20       -0.158006
   21        0.017955
   22        0.213017
   23        0.234627
   24        0.002877
   25        0.004957
   26        0.004005
   27       -0.000030
   28        0.000309
   29        0.003086
   30        0.007224
   31        0.024842
   32       -0.369096
   33       -0.072796
   34        0.182762
   35        0.532720
   36        0.108675
   37       -0.256981
   38        0.004818
   39       -0.008046
   40        0.002871
   41        0.005154
   42        0.001650
   43       -0.000024
   44       -0.000021
   45       -0.000613
   46        0.174531
   47       -0.107510
   48       -0.254645
   49       -0.255520
   50        0.158136
   51        0.374684
   52       -0.000183
   53        0.009385
   54        0.002563
   55       -0.002628
   56       -0.000219
Sym= A
Ene=    0.2826
Spin= Alpha
Occup=  0.0000
    1       -0.114633
    2       -0.271706
    3       -1.108278
    4        0.274703
    5       -0.011370
    6       -0.164440
    7       -0.857117
    8        0.060974
    9        0.339282
   10       -0.019387
   11        0.013929
   12       -0.006134
   13        0.005298
   14       -0.010982
   15        0.145706
   16        0.344242
   17        1.414638
   18        0.352965
   19       -0.154332
   20        0.114112
   21       -1.023156
   22        0.364126
   23       -0.245772
   24       -0.007432
   25        0.015194
   26       -0.010894
   27       -0.005642
   28       -0.011188
   29       -0.048925
   30       -0.116263
   31       -0.471655
   32        0.165917
   33        0.027113
   34        0.076764
   35       -0.622847
   36       -0.021257
   37       -0.168781
   38       -0.015190
   39        0.024300
   40       -0.012702
   41        0.006641
   42       -0.004872
   43        0.017099
   44        0.040476
   45        0.165607
   46        0.138441
   47        0.013454
   48       -0.004799
   49       -0.563591
   50        0.007129
   51        0.003925
   52       -0.009906
   53        0.017346
   54       -0.009200
   55       -0.007132
   56       -0.023423
Sym= A
Ene=    0.2859
Spin= Alpha
Occup=  0.0000
    1        0.034491
    2        0.081403
    3        0.340022
    4       -0.068172
    5       -0.120586
    6        0.064377
    7        0.185220
    8        0.531323
    9       -0.181431
   10        0.008339
   11        0.004849
   12        0.018879
   13        0.014685
   14       -0.019820
   15        0.067496
   16        0.158883
   17        0.667444
   18        0.091321
   19       -0.185967
   20        0.066933
   21       -0.160611
   22        0.671078
   23       -0.186168
   24        0.008265
   25        0.006723
   26        0.012589
   27        0.026456
   28       -0.001729
   29        0.063825
   30        0.151128
   31        0.626401
   32       -0.057898
   33       -0.178133
   34       -0.083892
   35        0.163702
   36        0.656442
   37        0.136070
   38        0.018413
   39        0.007105
   40        0.001602
   41        0.020644
   42       -0.013283
   43       -0.165828
   44       -0.391483
   45       -1.633839
   46       -0.092828
   47       -0.430155
   48        0.097648
   49        0.238776
   50        1.198408
   51       -0.252681
   52        0.007517
   53        0.005297
   54        0.008866
   55        0.013267
   56       -0.009903
Sym= A
Ene=    0.2895
Spin= Alpha
Occup=  0.0000
    1        0.116729
    2        0.274531
    3        1.172332
    4       -0.156870
    5        0.024593
    6        0.292540
    7        0.347153
    8       -0.097606
    9       -0.915014
   10       -0.015034
   11       -0.013299
   12       -0.012179
   13        0.014175
   14       -0.005505
   15        0.044157
   16        0.103466
   17        0.445751
   18        0.075545
   19       -0.023891
   20        0.141506
   21       -0.165750
   22        0.007814
   23       -0.588268
   24       -0.012967
   25       -0.024443
   26       -0.004726
   27        0.009092
   28       -0.012146
   29       -0.147510