[Molden Format]
[GTO]
    1 0
 s   7 1.00
    1712.8415853   -0.0053934100
     257.6481268   -0.0402215800
      58.4582458   -0.1793114500
      16.1983679   -0.4637631800
       5.0052601   -0.4417142300
       0.5873186    0.0000000000
       0.1876459    0.0000000000
 s   7 1.00
    1712.8415853    0.0000000000
     257.6481268    0.0000000000
      58.4582458    0.0000000000
      16.1983679    0.0000000000
       5.0052601    0.0000000000
       0.5873186    1.0000000000
       0.1876459    0.0000000000
 s   7 1.00
    1712.8415853    0.0000000000
     257.6481268    0.0000000000
      58.4582458    0.0000000000
      16.1983679    0.0000000000
       5.0052601    0.0000000000
       0.5873186    0.0000000000
       0.1876459    1.0000000000
 p   4 1.00
      13.5714702   -0.0400724000
       2.9257373   -0.2180704500
       0.7992775   -0.5129446600
       0.2195435    0.0000000000
 p   4 1.00
      13.5714702    0.0000000000
       2.9257373    0.0000000000
       0.7992775    0.0000000000
       0.2195435    1.0000000000
 d   1 1.00
       1.0000000    1.0000000000

    2 0
 s   7 1.00
    1712.8415853   -0.0053934100
     257.6481268   -0.0402215800
      58.4582458   -0.1793114500
      16.1983679   -0.4637631800
       5.0052601   -0.4417142300
       0.5873186    0.0000000000
       0.1876459    0.0000000000
 s   7 1.00
    1712.8415853    0.0000000000
     257.6481268    0.0000000000
      58.4582458    0.0000000000
      16.1983679    0.0000000000
       5.0052601    0.0000000000
       0.5873186    1.0000000000
       0.1876459    0.0000000000
 s   7 1.00
    1712.8415853    0.0000000000
     257.6481268    0.0000000000
      58.4582458    0.0000000000
      16.1983679    0.0000000000
       5.0052601    0.0000000000
       0.5873186    0.0000000000
       0.1876459    1.0000000000
 p   4 1.00
      13.5714702   -0.0400724000
       2.9257373   -0.2180704500
       0.7992775   -0.5129446600
       0.2195435    0.0000000000
 p   4 1.00
      13.5714702    0.0000000000
       2.9257373    0.0000000000
       0.7992775    0.0000000000
       0.2195435    1.0000000000
 d   1 1.00
       1.0000000    1.0000000000

    3 0
 s   7 1.00
    1712.8415853   -0.0053934100
     257.6481268   -0.0402215800
      58.4582458   -0.1793114500
      16.1983679   -0.4637631800
       5.0052601   -0.4417142300
       0.5873186    0.0000000000
       0.1876459    0.0000000000
 s   7 1.00
    1712.8415853    0.0000000000
     257.6481268    0.0000000000
      58.4582458    0.0000000000
      16.1983679    0.0000000000
       5.0052601    0.0000000000
       0.5873186    1.0000000000
       0.1876459    0.0000000000
 s   7 1.00
    1712.8415853    0.0000000000
     257.6481268    0.0000000000
      58.4582458    0.0000000000
      16.1983679    0.0000000000
       5.0052601    0.0000000000
       0.5873186    0.0000000000
       0.1876459    1.0000000000
 p   4 1.00
      13.5714702   -0.0400724000
       2.9257373   -0.2180704500
       0.7992775   -0.5129446600
       0.2195435    0.0000000000
 p   4 1.00
      13.5714702    0.0000000000
       2.9257373    0.0000000000
       0.7992775    0.0000000000
       0.2195435    1.0000000000
 d   1 1.00
       1.0000000    1.0000000000

    4 0
 s   7 1.00
    1712.8415853   -0.0053934100
     257.6481268   -0.0402215800
      58.4582458   -0.1793114500
      16.1983679   -0.4637631800
       5.0052601   -0.4417142300
       0.5873186    0.0000000000
       0.1876459    0.0000000000
 s   7 1.00
    1712.8415853    0.0000000000
     257.6481268    0.0000000000
      58.4582458    0.0000000000
      16.1983679    0.0000000000
       5.0052601    0.0000000000
       0.5873186    1.0000000000
       0.1876459    0.0000000000
 s   7 1.00
    1712.8415853    0.0000000000
     257.6481268    0.0000000000
      58.4582458    0.0000000000
      16.1983679    0.0000000000
       5.0052601    0.0000000000
       0.5873186    0.0000000000
       0.1876459    1.0000000000
 p   4 1.00
      13.5714702   -0.0400724000
       2.9257373   -0.2180704500
       0.7992775   -0.5129446600
       0.2195435    0.0000000000
 p   4 1.00
      13.5714702    0.0000000000
       2.9257373    0.0000000000
       0.7992775    0.0000000000
       0.2195435    1.0000000000
 d   1 1.00
       1.0000000    1.0000000000

[SCFCONV]
scf-first  1  THROUGH  11
     -216.5615023442
     -217.2365286649
     -217.3116123042
     -217.3138577530
     -217.3139837236
     -217.3140023757
     -217.3140077000
     -217.3140080309
     -217.3140080405
     -217.3140080416
     -217.3140080417
[TITLE]
*** Dalton2013 interface to Molden, wave function type : HF             2Jun15
[Atoms] AU
N          1     7        -1.2141710420         0.0000000000         1.192911653
N          2     7         1.3902700099        -0.8023365584         0.582123105
N          3     7        -0.5808226486        -0.8023365584        -1.377397541
N          4     7         0.4047236807         1.6046731167        -0.397637217
[5D7F]
[9G]
[MO]
Sym= A
Ene=  -15.7527
Spin= Alpha
Occup= 0.0000
    1        0.501350
    2       -0.017067
    3        0.004734
    4        0.001455
    6       -0.001439
    7        0.001675
    8        0.000008
    9       -0.001699
   10        0.000169
   11       -0.000637
   12        0.000004
   13        0.000328
   15        0.506924
   16       -0.017212
   17        0.004736
   18       -0.001679
   19        0.000971
   20       -0.000708
   21       -0.001894
   22        0.001114
   23       -0.000831
   24       -0.000247
   25        0.000348
   26       -0.000204
   27        0.000277
   28       -0.000485
   29        0.483035
   30       -0.016504
   31        0.004422
   32        0.000675
   33        0.000936
   34        0.001606
   35        0.000787
   36        0.001104
   37        0.001883
   38        0.000376
   39        0.000360
   40        0.000500
   41       -0.000057
   42        0.000205
   43        0.490958
   44       -0.016726
   45        0.004478
   46       -0.000477
   47       -0.001892
   48        0.000468
   49       -0.000542
   50       -0.002172
   51        0.000527
   52       -0.000316
   53       -0.000074
   54       -0.000300
   55       -0.000532
   56        0.000278
Sym= A
Ene=  -15.7521
Spin= Alpha
Occup= 0.0000
    1        0.586119
    2       -0.019265
    3        0.014740
    4        0.001657
    5       -0.000044
    6       -0.001527
    7        0.004665
    8       -0.000745
    9       -0.002496
   10        0.000304
   11        0.000315
   12       -0.000083
   13       -0.000484
   14        0.000280
   15       -0.783718
   16        0.025708
   17       -0.019795
   18        0.002465
   19       -0.001403
   20        0.000995
   21        0.005979
   22       -0.002951
   23        0.001577
   24       -0.000281
   25        0.000090
   26       -0.000049
   27        0.000407
   28       -0.000408
   29        0.136118
   30       -0.004487
   31        0.003384
   32        0.000319
   33        0.000185
   34        0.000399
   35        0.002480
   36       -0.000369
   37        0.000621
   38        0.000178
   39       -0.000712
   40        0.000241
   41       -0.000337
   42       -0.000080
   43        0.076755
   44       -0.002519
   45        0.001823
   46        0.000078
   47       -0.000318
   48        0.000065
   49        0.002100
   50       -0.001163
   51        0.000070
   52        0.000142
   53       -0.000345
   54        0.000114
   55        0.000328
   56        0.000668
Sym= A
Ene=  -15.7520
Spin= Alpha
Occup= 0.0000
    1        0.495342
    2       -0.016257
    3        0.012578
    4        0.001336
    5        0.000118
    6       -0.001375
    7        0.002727
    8        0.001809
    9       -0.003344
   10       -0.000168
   11        0.000420
   12        0.000408
   13        0.000054
   14       -0.000485
   15        0.291484
   16       -0.009543
   17        0.007370
   18       -0.000834
   19        0.000626
   20       -0.000451
   21       -0.000766
   22        0.002626
   23       -0.001854
   24        0.000026
   25       -0.000314
   26        0.000417
   27        0.000570
   28        0.000259
   29        0.000570
   30       -0.000024
   31        0.000144
   32        0.000045
   33        0.000117
   34       -0.000094
   35        0.000647
   36        0.001821
   37       -0.001247
   38        0.000608
   39       -0.000077
   40       -0.000185
   41        0.000403
   42       -0.000382
   43       -0.807359
   44        0.026517
   45       -0.020281
   46        0.000745
   47        0.002927
   48       -0.000784
   49        0.001761
   50        0.006327
   51       -0.002395
   52       -0.000175
   53       -0.000191
   54       -0.000460
   55       -0.000323
   56        0.000216
Sym= A
Ene=  -15.7520
Spin= Alpha
Occup= 0.0000
    1       -0.376878
    2        0.012355
    3       -0.009613
    4       -0.000955
    5        0.000088
    6        0.001125
    7       -0.001126
    8        0.001229
    9        0.003491
   10        0.000656
   11       -0.000212
   12        0.000428
   13       -0.000079
   14       -0.000188
   15       -0.161725
   16        0.005293
   17       -0.004195
   18        0.000516
   19       -0.000200
   20        0.000328
   21        0.001253
   22        0.000766
   23        0.002233
   24        0.000348
   25        0.000662
   26        0.000027
   27        0.000260
   28        0.000241
   29        0.854646
   30       -0.028105
   31        0.021532
   32        0.001097
   33        0.001575
   34        0.002715
   35        0.002180
   36        0.003615
   37        0.006046
   38       -0.000361
   39       -0.000180
   40       -0.000465
   41        0.000108
   42       -0.000156
   43       -0.289013
   44        0.009489
   45       -0.007461
   46        0.000281
   47        0.001082
   48       -0.000123
   49        0.000871
   50        0.002865
   51        0.001489
   52       -0.000252
   53        0.000257
   54        0.000575
   55       -0.000360
   56        0.000281
Sym= A
Ene=   -1.6678
Spin= Alpha
Occup= 0.0000
    1       -0.130043
    2       -0.262056
    3       -0.070310
    4        0.095995
    5       -0.000012
    6       -0.096402
    7       -0.026863
    8       -0.000001
    9        0.026622
   10       -0.005714
   11        0.020082
   12       -0.000046
   13       -0.010089
   14       -0.000043
   15       -0.129180
   16       -0.260400
   17       -0.069258
   18       -0.109729
   19        0.063575
   20       -0.046813
   21        0.030255
   22       -0.017595
   23        0.012793
   24        0.007504
   25       -0.011220
   26        0.006473
   27       -0.008780
   28        0.015263
   29       -0.130906
   30       -0.263709
   31       -0.071430
   32        0.046124
   33        0.064688
   34        0.111486
   35       -0.013053
   36       -0.018079
   37       -0.031274
   38       -0.011443
   39       -0.011090
   40       -0.015527
   41        0.002129
   42       -0.006462
   43       -0.130032
   44       -0.262034
   45       -0.070331
   46       -0.032473
   47       -0.128250
   48        0.031644
   49        0.008895
   50        0.035667
   51       -0.008942
   52        0.009771
   53        0.002231
   54        0.008836
   55        0.016672
   56       -0.009015
Sym= A
Ene=   -1.0459
Spin= Alpha
Occup= 0.0000
    1       -0.159543
    2       -0.338198
    3       -0.307847
    4       -0.089770
    5       -0.027673
    6       -0.107147
    7       -0.019868
    8        0.006971
    9        0.071245
   10       -0.020690
   11        0.003239
   12       -0.004911
   13        0.009228
   14        0.001363
   15        0.171029
   16        0.362432
   17        0.329761
   18       -0.065257
   19       -0.100827
   20        0.052310
   21       -0.036317
   22        0.057188
   23       -0.036492
   24        0.001511
   25        0.004850
   26       -0.010532
   27       -0.016243
   28       -0.008477
   29       -0.093534
   30       -0.198290
   31       -0.180951
   32       -0.166635
   33        0.014077
   34        0.069853
   35        0.031184
   36       -0.020758
   37       -0.047477
   38       -0.016167
   39        0.019464
   40       -0.008180
   41        0.008587
   42        0.009768
   43        0.083401
   44        0.176696
   45        0.161632
   46       -0.175886
   47        0.045541
   48       -0.019749
   49        0.038186
   50       -0.042467
   51        0.012729
   52       -0.001490
   53        0.007805
   54       -0.006129
   55       -0.013141
   56       -0.024971
Sym= A
Ene=   -1.0425
Spin= Alpha
Occup= 0.0000
    1        0.043942
    2        0.093155
    3        0.085552
    4       -0.002202
    5       -0.193351
    6        0.001572
    7        0.012371
    8        0.050886
    9       -0.012723
   10       -0.001211
   11       -0.002576
   12       -0.022097
   13       -0.002073
   14        0.022245
   15       -0.121147
   16       -0.256829
   17       -0.234951
   18       -0.063169
   19       -0.140290
   20       -0.064699
   21        0.054392
   22        0.014821
   23        0.033076
   24       -0.006480
   25       -0.013225
   26       -0.004520
   27       -0.019523
   28       -0.011365
   29       -0.120553
   30       -0.255548
   31       -0.235525
   32        0.064526
   33       -0.141727
   34        0.064096
   35       -0.032933
   36        0.015240
   37       -0.055266
   38       -0.013787
   39       -0.013164
   40        0.011506
   41       -0.015640
   42        0.004523
   43        0.197759
   44        0.419227
   45        0.384934
   46        0.070347
   47       -0.022007
   48       -0.068643
   49       -0.036741
   50       -0.066471
   51        0.035965
   52        0.002232
   53       -0.007185
   54       -0.010170
   55        0.004258
   56        0.010455
Sym= A
Ene=   -1.0391
Spin= Alpha
Occup= 0.0000
    1       -0.159066
    2       -0.337225
    3       -0.312276
    4        0.103512
    5       -0.025673
    6        0.093508
    7       -0.071499
    8        0.007075
    9        0.019190
   10        0.018520
   11        0.002754
   12       -0.001322
   13       -0.013206
   14        0.004637
   15       -0.094602
   16       -0.200542
   17       -0.185229
   18       -0.067052
   19        0.014100
   20        0.164673
   21        0.047823
   22       -0.021023
   23       -0.031103
   24        0.015619
   25        0.018970
   26       -0.009510
   27       -0.009532
   28        0.008140
   29        0.170919
   30        0.362469
   31        0.335812
   32       -0.051429
   33       -0.100647
   34        0.069586
   35        0.036074
   36        0.058310
   37        0.035923
   38       -0.015234
   39        0.004584
   40        0.008278
   41       -0.006878
   42        0.010489
   43        0.081386
   44        0.172634
   45        0.159066
   46        0.019596
   47        0.043934
   48        0.178753
   49       -0.012671
   50       -0.041278
   51       -0.040107
   52       -0.010441
   53        0.008005
   54        0.025283
   55       -0.007685
   56        0.006141
Sym= A
Ene=   -0.6941
Spin= Alpha
Occup= 0.0000
    1       -0.064210
    2       -0.128755
    3       -0.184246
    4       -0.206389
    5       -0.000004
    6        0.202864
    7        0.100373
    8        0.000006
    9       -0.098010
   10        0.008487
   11       -0.031166
   12       -0.000109
   13        0.015879
   14       -0.000107
   15       -0.064197
   16       -0.128785
   17       -0.184643
   18        0.233977
   19       -0.134960
   20        0.097970
   21       -0.113070
   22        0.065279
   23       -0.047112
   24       -0.011626
   25        0.017166
   26       -0.009964
   27        0.013776
   28       -0.023773
   29       -0.064208
   30       -0.128690
   31       -0.183768
   32       -0.099740
   33       -0.137855
   34       -0.236617
   35        0.048733
   36        0.066982
   37        0.115073
   38        0.017652
   39        0.017463
   40        0.024015
   41       -0.003399
   42        0.010112
   43       -0.064208
   44       -0.128748
   45       -0.184236
   46        0.068892
   47        0.272808
   48       -0.067551
   49       -0.033210
   50       -0.132243
   51        0.032937
   52       -0.015031
   53       -0.003465
   54       -0.013725
   55       -0.025951
   56        0.013986
Sym= A
Ene=   -0.5781
Spin= Alpha
Occup= 0.0000
    1        0.072109
    2        0.167321
    3        0.125736
    4        0.017843
    5        0.099762
    6       -0.282822
    7       -0.041519
    8       -0.053917
    9        0.184513
   10       -0.022192
   11        0.004044
   12        0.012080
   13        0.005827
   14       -0.004930
   15       -0.118339
   16       -0.274892
   17       -0.206072
   18        0.246075
   19       -0.172528
   20        0.184125
   21       -0.193147
   22        0.127325
   23       -0.124705
   24        0.002459
   25        0.008921
   26       -0.007696
   27        0.000972
   28       -0.006804
   29        0.023760
   30        0.055052
   31        0.041609
   32       -0.202158
   33        0.162158
   34        0.076461
   35        0.104203
   36       -0.094906
   37       -0.053066
   38       -0.002351
   39        0.016594
   40       -0.016122
   41        0.017512
   42        0.012658
   43        0.021953
   44        0.050860
   45        0.038770
   46       -0.258310
   47       -0.000481
   48        0.001941
   49        0.141775
   50        0.012803
   51       -0.004018
   52        0.005588
   53        0.001429
   54        0.000172
   55       -0.015271
   56       -0.026417
Sym= A
Ene=   -0.5770
Spin= Alpha
Occup= 0.0000
    1       -0.070502
    2       -0.163784
    3       -0.122131
    4       -0.142737
    5        0.215123
    6        0.148178
    7        0.108752
    8       -0.116389
    9       -0.111456
   10       -0.001092
   11       -0.008403
   12        0.018533
   13       -0.001982
   14       -0.017440
   15       -0.026103
   16       -0.060637
   17       -0.045546
   18        0.200851
   19        0.146391
   20       -0.060300
   21       -0.120981
   22       -0.070740
   23        0.027064
   24       -0.012950
   25        0.000668
   26        0.010351
   27        0.022532
   28        0.012110
   29       -0.021906
   30       -0.050891
   31       -0.037592
   32        0.070140
   33        0.166850
   34       -0.207853
   35       -0.033227
   36       -0.084257
   37        0.124647
   38        0.027501
   39       -0.000042
   40       -0.012508
   41        0.001733
   42       -0.010825
   43        0.118502
   44        0.275322
   45        0.205165
   46       -0.045878
   47       -0.348922
   48        0.024837
   49        0.043385
   50        0.259175
   51       -0.030213
   52        0.006762
   53        0.000376
   54       -0.002090
   55        0.011434
   56       -0.000099
Sym= A
Ene=   -0.5758
Spin= Alpha
Occup= 0.0000
    1       -0.070422
    2       -0.163827
    3       -0.120980
    4       -0.273292
    5       -0.112224
    6        0.014183
    7        0.179875
    8        0.060712
    9       -0.039428
   10       -0.016042
   11       -0.003651
   12       -0.005266
   13        0.015625
   14        0.013211
   15       -0.023709
   16       -0.055225
   17       -0.040602
   18        0.071416
   19       -0.162695
   20       -0.192510
   21       -0.051297
   22        0.094852
   23        0.099003
   24       -0.015889
   25       -0.015530
   26        0.012429
   27       -0.007196
   28       -0.016122
   29        0.118222
   30        0.274733
   31        0.203374
   32        0.176111
   33        0.177207
   34        0.248748
   35       -0.121123
   36       -0.132199
   37       -0.195972
   38        0.000241
   39       -0.008099
   40       -0.006542
   41       -0.002040
   42       -0.007850
   43       -0.024604
   44       -0.057318
   45       -0.041760
   46        0.006591
   47        0.008847
   48       -0.272289
   49       -0.007587
   50       -0.020019
   51        0.152028
   52        0.015665
   53       -0.002442
   54       -0.027245
   55        0.002661
   56        0.000283
Sym= A
Ene=   -0.5497
Spin= Alpha
Occup= 0.0000
    1        0.002080
    2        0.005464
    3        0.001288
    4        0.165177
    5        0.230304
    6        0.159077
    7       -0.110945
    8       -0.152736
    9       -0.104098
   10        0.022905
   11        0.007824
   12        0.024154
   13        0.002013
   14       -0.002583
   15       -0.001233
   16       -0.002726
   17       -0.002021
   18       -0.152362
   19       -0.298786
   20       -0.036013
   21        0.100135
   22        0.197588
   23        0.023699
   24       -0.015683
   25       -0.006996
   26       -0.018909
   27       -0.023982
   28       -0.003265
   29        0.001172
   30        0.003224
   31        0.000333
   32        0.302856
   33       -0.022765
   34       -0.110063
   35       -0.201699
   36        0.014387
   37        0.072140
   38        0.015898
   39       -0.029068
   40        0.008153
   41        0.002492
   42        0.002442
   43       -0.002242
   44       -0.005199
   45       -0.003120
   46       -0.323664
   47        0.086407
   48       -0.011487
   49        0.213910
   50       -0.058382
   51        0.007892
   52       -0.011238
   53        0.020536
   54       -0.009282
   55       -0.004402
   56       -0.024063
Sym= A
Ene=   -0.5444
Spin= Alpha
Occup= 0.0000
    1       -0.001754
    2       -0.004713
    3       -0.000710
    4       -0.169944
    5        0.235907
    6       -0.165394
    7        0.115039
    8       -0.157854
    9        0.109350
   10       -0.010179
   11        0.007502
   12        0.002829
   13        0.021206
   14       -0.024484
   15       -0.001004
   16       -0.002836
   17       -0.000083
   18        0.123287
   19       -0.019289
   20       -0.312492
   21       -0.083299
   22        0.013518
   23        0.208244
   24       -0.007090
   25       -0.029052
   26       -0.001606
   27        0.016071
   28       -0.008141
   29        0.001135
   30        0.002490
   31        0.001884
   32        0.040243
   33       -0.282896
   34        0.152345
   35       -0.027095
   36        0.189663
   37       -0.102673
   38       -0.011360
   39       -0.006771
   40        0.002014
   41       -0.025508
   42        0.018437
   43        0.001816
   44        0.004208
   45        0.002412
   46        0.007604
   47        0.070663
   48        0.317850
   49       -0.004833
   50       -0.046324
   51       -0.213167
   52        0.003091
   53        0.020369
   54        0.022974
   55       -0.011650
   56        0.009191
Sym= A
Ene=    0.1840
Spin= Alpha
Occup= 0.0000
    1       -0.003962
    2       -0.009408
    3       -0.029963
    4        0.233137
    5       -0.307465
    6        0.215600
    7       -0.342512
    8        0.443817
    9       -0.305500
   10       -0.001350
   11        0.004196
   12       -0.001938
   13        0.007810
   14       -0.008889
   15        0.003308
   16        0.007773
   17        0.025874
   18        0.209437
   19        0.067773
   20       -0.367941
   21       -0.308428
   22       -0.093934
   23        0.529627
   24       -0.002068
   25        0.009675
   26        0.001177
   27       -0.007254
   28        0.002724
   29        0.000710
   30        0.001699
   31        0.005191
   32       -0.163426
   33        0.129279
   34       -0.009601
   35        0.228448
   36       -0.183029
   37        0.016644
   38        0.000772
   39       -0.003179
   40        0.000273
   41       -0.001484
   42        0.003309
   43       -0.000067
   44       -0.000109
   45       -0.001111
   46       -0.251580
   47        0.100077
   48        0.150386
   49        0.354907
   50       -0.140995
   51       -0.213252
   52        0.001635
   53       -0.007432
   54        0.000164
   55        0.000775
   56        0.001511
Sym= A
Ene=    0.1860
Spin= Alpha
Occup= 0.0000
    1       -0.000735
    2       -0.001742
    3       -0.005608
    4        0.042458
    5        0.009950
    6        0.039204
    7       -0.062305
    8       -0.012629
    9       -0.055388
   10       -0.000587
   11        0.000335
   12       -0.001026
   13        0.000761
   14       -0.000885
   15        0.000524
   16        0.001100
   17        0.005682
   18        0.164312
   19        0.352455
   20        0.102205
   21       -0.238289
   22       -0.505958
   23       -0.146625
   24       -0.006333
   25       -0.002778
   26       -0.006954
   27       -0.004931
   28        0.001089
   29        0.000533
   30        0.001121
   31        0.005818
   32        0.095292
   33       -0.361494
   34        0.166569
   35       -0.138122
   36        0.523559
   37       -0.238800
   38        0.000963
   39        0.002956
   40        0.001525
   41        0.008443
   42       -0.007441
   43       -0.000322
   44       -0.000479
   45       -0.005892
   46       -0.298450
   47       -0.005444
   48       -0.311595
   49        0.429947
   50        0.010511
   51        0.449742
   52        0.006256
   53        0.000486
   54        0.006992
   55       -0.003786
   56        0.006710
Sym= A
Ene=    0.1879
Spin= Alpha
Occup= 0.0000
    1       -0.003893
    2       -0.009217
    3       -0.029957
    4        0.221336
    5        0.316021
    6        0.204083
    7       -0.324733
    8       -0.455182
    9       -0.287842
   10       -0.007215
   11       -0.003151
   12       -0.008212
   13       -0.003438
   14       -0.001470
   15        0.000842
   16        0.002056
   17        0.005732
   18       -0.014390
   19       -0.145487
   20       -0.158004
   21        0.017957
   22        0.213018
   23        0.234624
   24        0.002878
   25        0.004957
   26        0.004005
   27       -0.000030
   28        0.000309
   29        0.003086
   30        0.007224
   31        0.024843
   32       -0.369095
   33       -0.072796
   34        0.182762
   35        0.532719
   36        0.108676
   37       -0.256982
   38        0.004818
   39       -0.008046
   40        0.002871
   41        0.005154
   42        0.001650
   43       -0.000024
   44       -0.000021
   45       -0.000613
   46        0.174533
   47       -0.107510
   48       -0.254645
   49       -0.255522
   50        0.158137
   51        0.374686
   52       -0.000183
   53        0.009385
   54        0.002563
   55       -0.002628
   56       -0.000219
Sym= A
Ene=    0.2826
Spin= Alpha
Occup= 0.0000
    1       -0.114632
    2       -0.271702
    3       -1.108267
    4        0.274701
    5       -0.011373
    6       -0.164437
    7       -0.857114
    8        0.060987
    9        0.339274
   10       -0.019387
   11        0.013929
   12       -0.006133
   13        0.005298
   14       -0.010982
   15        0.145708
   16        0.344246
   17        1.414659
   18        0.352967
   19       -0.154336
   20        0.114114
   21       -1.023163
   22        0.364142
   23       -0.245780
   24       -0.007432
   25        0.015194
   26       -0.010894
   27       -0.005641
   28       -0.011188
   29       -0.048924
   30       -0.116261
   31       -0.471649
   32        0.165916
   33        0.027109
   34        0.076764
   35       -0.622845
   36       -0.021244
   37       -0.168782
   38       -0.015189
   39        0.024300
   40       -0.012702
   41        0.006641
   42       -0.004873
   43        0.017095
   44        0.040467
   45        0.165569
   46        0.138438
   47        0.013444
   48       -0.004797
   49       -0.563586
   50        0.007157
   51        0.003917
   52       -0.009906
   53        0.017346
   54       -0.009200
   55       -0.007132
   56       -0.023423
Sym= A
Ene=    0.2859
Spin= Alpha
Occup= 0.0000
    1        0.034491
    2        0.081403
    3        0.340022
    4       -0.068174
    5       -0.120586
    6        0.064374
    7        0.185232
    8        0.531324
    9       -0.181419
   10        0.008340
   11        0.004849
   12        0.018880
   13        0.014685
   14       -0.019820
   15        0.067492
   16        0.158873
   17        0.667402
   18        0.091311
   19       -0.185962
   20        0.066927
   21       -0.160584
   22        0.671071
   23       -0.186150
   24        0.008265
   25        0.006723
   26        0.012589
   27        0.026456
   28       -0.001729
   29        0.063830
   30        0.151138
   31        0.626446
   32       -0.057904
   33       -0.178137
   34       -0.083902
   35        0.163721
   36        0.656452
   37        0.136098
   38        0.018413
   39        0.007104
   40        0.001603
   41        0.020644
   42       -0.013283
   43       -0.165828
   44       -0.391482
   45       -1.633843
   46       -0.092831
   47       -0.430155
   48        0.097645
   49        0.238790
   50        1.198411
   51       -0.252670
   52        0.007517
   53        0.005297
   54        0.008867
   55        0.013266
   56       -0.009902
Sym= A
Ene=    0.2895
Spin= Alpha
Occup= 0.0000
    1        0.116731
    2        0.274533
    3        1.172348
    4       -0.156873
    5        0.024590
    6        0.292542
    7        0.347162
    8       -0.097594
    9       -0.915021
   10       -0.015034
   11       -0.013299
   12       -0.012179
   13        0.014176
   14       -0.005506
   15        0.044158
   16        0.103468
   17        0.445760
   18        0.075546
   19       -0.023895
   20        0.141506
   21       -0.165749
   22        0.007828
   23       -0.588271
   24       -0.012967
   25       -0.024442
   26       -0.004725
   27        0.009093
   28       -0.012146
   29       -0.147508
   30       -0.347997