

     ************************************************************************
     *************** Dalton - An Electronic Structure Program ***************
     ************************************************************************

    This is output from DALTON release Dalton2017.alpha (2017)
         ( Web site: http://daltonprogram.org )

   ----------------------------------------------------------------------------

    NOTE:
     
    Dalton is an experimental code for the evaluation of molecular
    properties using (MC)SCF, DFT, CI, and CC wave functions.
    The authors accept no responsibility for the performance of
    the code or for the correctness of the results.
     
    The code (in whole or part) is provided under a licence and
    is not to be reproduced for further distribution without
    the written permission of the authors or their representatives.
     
    See the home page "http://daltonprogram.org" for further information.
     
    If results obtained with this code are published,
    the appropriate citations would be both of:
     
       K. Aidas, C. Angeli, K. L. Bak, V. Bakken, R. Bast,
       L. Boman, O. Christiansen, R. Cimiraglia, S. Coriani,
       P. Dahle, E. K. Dalskov, U. Ekstroem,
       T. Enevoldsen, J. J. Eriksen, P. Ettenhuber, B. Fernandez,
       L. Ferrighi, H. Fliegl, L. Frediani, K. Hald, A. Halkier,
       C. Haettig, H. Heiberg, T. Helgaker, A. C. Hennum,
       H. Hettema, E. Hjertenaes, S. Hoest, I.-M. Hoeyvik,
       M. F. Iozzi, B. Jansik, H. J. Aa. Jensen, D. Jonsson,
       P. Joergensen, J. Kauczor, S. Kirpekar,
       T. Kjaergaard, W. Klopper, S. Knecht, R. Kobayashi, H. Koch,
       J. Kongsted, A. Krapp, K. Kristensen, A. Ligabue,
       O. B. Lutnaes, J. I. Melo, K. V. Mikkelsen, R. H. Myhre,
       C. Neiss, C. B. Nielsen, P. Norman, J. Olsen,
       J. M. H. Olsen, A. Osted, M. J. Packer, F. Pawlowski,
       T. B. Pedersen, P. F. Provasi, S. Reine, Z. Rinkevicius,
       T. A. Ruden, K. Ruud, V. Rybkin, P. Salek, C. C. M. Samson,
       A. Sanchez de Meras, T. Saue, S. P. A. Sauer,
       B. Schimmelpfennig, K. Sneskov, A. H. Steindal,
       K. O. Sylvester-Hvid, P. R. Taylor, A. M. Teale,
       E. I. Tellgren, D. P. Tew, A. J. Thorvaldsen, L. Thoegersen,
       O. Vahtras, M. A. Watson, D. J. D. Wilson, M. Ziolkowski
       and H. Agren,
       "The Dalton quantum chemistry program system",
       WIREs Comput. Mol. Sci. 2014, 4:269–284 (doi: 10.1002/wcms.1172)
     
    and
     
       Dalton, a Molecular Electronic Structure Program,
       Release Dalton2017.alpha (2017), see http://daltonprogram.org
   ----------------------------------------------------------------------------

    Authors in alphabetical order (major contribution(s) in parenthesis):

  Kestutis Aidas,           Vilnius University,           Lithuania   (QM/MM)
  Celestino Angeli,         University of Ferrara,        Italy       (NEVPT2)
  Keld L. Bak,              UNI-C,                        Denmark     (AOSOPPA, non-adiabatic coupling, magnetic properties)
  Vebjoern Bakken,          University of Oslo,           Norway      (DALTON; geometry optimizer, symmetry detection)
  Radovan Bast,             UiT The Arctic U. of Norway,  Norway      (DALTON installation and execution frameworks)
  Pablo Baudin,             University of Valencia,       Spain       (Cholesky excitation energies)
  Linus Boman,              NTNU,                         Norway      (Cholesky decomposition and subsystems)
  Ove Christiansen,         Aarhus University,            Denmark     (CC module)
  Renzo Cimiraglia,         University of Ferrara,        Italy       (NEVPT2)
  Sonia Coriani,            University of Trieste,        Italy       (CC module, MCD in RESPONS)
  Janusz Cukras,            University of Trieste,        Italy       (MChD in RESPONS)
  Paal Dahle,               University of Oslo,           Norway      (Parallelization)
  Erik K. Dalskov,          UNI-C,                        Denmark     (SOPPA)
  Thomas Enevoldsen,        Univ. of Southern Denmark,    Denmark     (SOPPA)
  Janus J. Eriksen,         Aarhus University,            Denmark     (Polarizable embedding model, TDA)
  Rasmus Faber,             University of Copenhagen,     Denmark     (Vib.avg. NMR with SOPPA, parallel AO-SOPPA)
  Berta Fernandez,          U. of Santiago de Compostela, Spain       (doublet spin, ESR in RESPONS)
  Lara Ferrighi,            Aarhus University,            Denmark     (PCM Cubic response)
  Heike Fliegl,             University of Oslo,           Norway      (CCSD(R12))
  Luca Frediani,            UiT The Arctic U. of Norway,  Norway      (PCM)
  Bin Gao,                  UiT The Arctic U. of Norway,  Norway      (Gen1Int library)
  Christof Haettig,         Ruhr-University Bochum,       Germany     (CC module)
  Kasper Hald,              Aarhus University,            Denmark     (CC module)
  Asger Halkier,            Aarhus University,            Denmark     (CC module)
  Frederik Beyer Hansen,    University of Copenhagen,     Denmark     (Parallel AO-SOPPA)
  Erik D. Hedegaard,        Univ. of Southern Denmark,    Denmark     (Polarizable embedding model, QM/MM)
  Hanne Heiberg,            University of Oslo,           Norway      (geometry analysis, selected one-electron integrals)
  Trygve Helgaker,          University of Oslo,           Norway      (DALTON; ABACUS, ERI, DFT modules, London, and much more)
  Alf Christian Hennum,     University of Oslo,           Norway      (Parity violation)
  Hinne Hettema,            University of Auckland,       New Zealand (quadratic response in RESPONS; SIRIUS supersymmetry)
  Eirik Hjertenaes,         NTNU,                         Norway      (Cholesky decomposition)
  Pi A. B. Haase,           University of Copenhagen,     Denmark     (Triplet AO-SOPPA)
  Maria Francesca Iozzi,    University of Oslo,           Norway      (RPA)
  Brano Jansik              Technical Univ. of Ostrava    Czech Rep.  (DFT cubic response)
  Hans Joergen Aa. Jensen,  Univ. of Southern Denmark,    Denmark     (DALTON; SIRIUS, RESPONS, ABACUS modules, London, and much more)
  Dan Jonsson,              UiT The Arctic U. of Norway,  Norway      (cubic response in RESPONS module)
  Poul Joergensen,          Aarhus University,            Denmark     (RESPONS, ABACUS, and CC modules)
  Maciej Kaminski,          University of Warsaw,         Poland      (CPPh in RESPONS)
  Joanna Kauczor,           Linkoeping University,        Sweden      (Complex polarization propagator (CPP) module)
  Sheela Kirpekar,          Univ. of Southern Denmark,    Denmark     (Mass-velocity & Darwin integrals)
  Wim Klopper,              KIT Karlsruhe,                Germany     (R12 code in CC, SIRIUS, and ABACUS modules)
  Stefan Knecht,            ETH Zurich,                   Switzerland (Parallel CI and MCSCF)
  Rika Kobayashi,           Australian National Univ.,    Australia   (DIIS in CC, London in MCSCF)
  Henrik Koch,              NTNU,                         Norway      (CC module, Cholesky decomposition)
  Jacob Kongsted,           Univ. of Southern Denmark,    Denmark     (Polarizable embedding model, QM/MM)
  Andrea Ligabue,           University of Modena,         Italy       (CTOCD, AOSOPPA)
  Nanna H. List             Univ. of Southern Denmark,    Denmark     (Polarizable embedding model)
  Ola B. Lutnaes,           University of Oslo,           Norway      (DFT Hessian)
  Juan I. Melo,             University of Buenos Aires,   Argentina   (LRESC, Relativistic Effects on NMR Shieldings)
  Kurt V. Mikkelsen,        University of Copenhagen,     Denmark     (MC-SCRF and QM/MM)
  Rolf H. Myhre,            NTNU,                         Norway      (Cholesky, subsystems and ECC2)
  Christian Neiss,          Univ. Erlangen-Nuernberg,     Germany     (CCSD(R12))
  Christian B. Nielsen,     University of Copenhagen,     Denmark     (QM/MM)
  Patrick Norman,           Linkoeping University,        Sweden      (Cubic response and complex frequency response in RESPONS)
  Jeppe Olsen,              Aarhus University,            Denmark     (SIRIUS CI/density modules)
  Jogvan Magnus H. Olsen,   Univ. of Southern Denmark,    Denmark     (Polarizable embedding model, QM/MM)
  Anders Osted,             Copenhagen University,        Denmark     (QM/MM)
  Martin J. Packer,         University of Sheffield,      UK          (SOPPA)
  Filip Pawlowski,          Kazimierz Wielki University,  Poland      (CC3)
  Morten N. Pedersen,       Univ. of Southern Denmark,    Denmark     (Polarizable embedding model)
  Thomas B. Pedersen,       University of Oslo,           Norway      (Cholesky decomposition)
  Patricio F. Provasi,      University of Northeastern,   Argentina   (Analysis of coupling constants in localized orbitals)
  Zilvinas Rinkevicius,     KTH Stockholm,                Sweden      (open-shell DFT, ESR)
  Elias Rudberg,            KTH Stockholm,                Sweden      (DFT grid and basis info)
  Torgeir A. Ruden,         University of Oslo,           Norway      (Numerical derivatives in ABACUS)
  Kenneth Ruud,             UiT The Arctic U. of Norway,  Norway      (DALTON; ABACUS magnetic properties and much more)
  Pawel Salek,              KTH Stockholm,                Sweden      (DALTON; DFT code)
  Claire C. M. Samson       University of Karlsruhe       Germany     (Boys localization, r12 integrals in ERI)
  Alfredo Sanchez de Meras, University of Valencia,       Spain       (CC module, Cholesky decomposition)
  Trond Saue,               Paul Sabatier University,     France      (direct Fock matrix construction)
  Stephan P. A. Sauer,      University of Copenhagen,     Denmark     (SOPPA(CCSD), SOPPA prop., AOSOPPA, vibrational g-factors)
  Bernd Schimmelpfennig,    Forschungszentrum Karlsruhe,  Germany     (AMFI module)
  Kristian Sneskov,         Aarhus University,            Denmark     (Polarizable embedding model, QM/MM)
  Arnfinn H. Steindal,      UiT The Arctic U. of Norway,  Norway      (parallel QM/MM, Polarizable embedding model)
  Casper Steinmann,         Univ. of Southern Denmark,    Denmark     (QFIT, Polarizable embedding model)
  K. O. Sylvester-Hvid,     University of Copenhagen,     Denmark     (MC-SCRF)
  Peter R. Taylor,          VLSCI/Univ. of Melbourne,     Australia   (Symmetry handling ABACUS, integral transformation)
  Andrew M. Teale,          University of Nottingham,     England     (DFT-AC, DFT-D)
  David P. Tew,             University of Bristol,        England     (CCSD(R12))
  Olav Vahtras,             KTH Stockholm,                Sweden      (triplet response, spin-orbit, ESR, TDDFT, open-shell DFT)
  David J. Wilson,          La Trobe University,          Australia   (DFT Hessian and DFT magnetizabilities)
  Hans Agren,               KTH Stockholm,                Sweden      (SIRIUS module, RESPONS, MC-SCRF solvation model)
 --------------------------------------------------------------------------------

     Date and time (Linux)  : Sun Jan 21 18:24:08 2018
     Host name              : vladimir-Kubuntu-16                     

 * Work memory size             :    64000000 =  488.28 megabytes.

 * Directories for basis set searches:
   1) /home/vladimir/git/molden2qmc/test/N4/DALTON/RHF/SVP
   2) /home/vladimir/git/dalton/build/basis


Compilation information
-----------------------

 Who compiled             | vladimir
 Host                     | vladimir-Kubuntu-16
 System                   | Linux-4.10.0-42-generic
 CMake generator          | Unix Makefiles
 Processor                | x86_64
 64-bit integers          | OFF
 MPI                      | OFF
 Fortran compiler         | /usr/bin/gfortran
 Fortran compiler version | GNU Fortran (Ubuntu 6.3.0-12ubuntu2) 6.3.0 2017040
                          | 6
 C compiler               | /usr/bin/gcc
 C compiler version       | gcc (Ubuntu 6.3.0-12ubuntu2) 6.3.0 20170406
 C++ compiler             | /usr/bin/g++
 C++ compiler version     | g++ (Ubuntu 6.3.0-12ubuntu2) 6.3.0 20170406
 BLAS                     | /usr/lib/libopenblas.so
 LAPACK                   | /usr/lib/liblapack.so
 Static linking           | OFF
 Last Git revision        | 9303ffee678b31bc7478a34c517e03bc6fdd0083
 Git branch               | master
 Configuration time       | 2018-01-21 17:35:12.315804


   Content of the .dal input file
 ----------------------------------

**DALTON INPUT
.RUN WAVE FUNCTIONS
**WAVE FUNCTIONS
.HF
*END OF INPUT



   Content of the .mol file
 ----------------------------

BASIS
def2_svp
N4 molecule
---------------------------
Atomtypes=1 Charge=0 Angstrom
Atoms=4 Charge=7
N       0.5200      0.5300      0.5100
N      -0.5200     -0.5200      0.5200
N      -0.5200      0.5200     -0.5200
N       0.5200     -0.5200     -0.5200


       *******************************************************************
       *********** Output from DALTON general input processing ***********
       *******************************************************************

 --------------------------------------------------------------------------------
   Overall default print level:    0
   Print level for DALTON.STAT:    1

    HERMIT 1- and 2-electron integral sections will be executed
    "Old" integral transformation used (limited to max 255 basis functions)
    Wave function sections will be executed (SIRIUS module)
 --------------------------------------------------------------------------------


   ****************************************************************************
   *************** Output of molecule and basis set information ***************
   ****************************************************************************


    The two title cards from your ".mol" input:
    ------------------------------------------------------------------------
 1: N4 molecule                                                             
 2: ---------------------------                                             
    ------------------------------------------------------------------------

  Coordinates are entered in Angstrom and converted to atomic units.
          - Conversion factor : 1 bohr = 0.52917721 A

  Atomic type no.    1
  --------------------
  Nuclear charge:   7.00000
  Number of symmetry independent centers:    4
  Number of basis sets to read;    2
  Basis set file used for this atomic type with Z =   7 :
     "/home/vladimir/git/dalton/build/basis/def2_svp"

  Info about the basis set file: your basis has no documentation.
  Basis set: def2_svp                                                                        


                      SYMADD: Requested addition of symmetry
                      --------------------------------------

 Symmetry test threshold:  5.00E-06

@   The molecule is centered at center of mass and rotated
@   so principal axes of inertia are along coordinate axes.

 Symmetry class found: C(1)           

 Symmetry Independent Centres             
 ----------------------------
       7 :     -0.58082265    -0.80233656    -1.37739754  Isotope  1
       7 :      0.40472368     1.60467312    -0.39763722  Isotope  1
       7 :     -1.21417104     0.00000000     1.19291165  Isotope  1
       7 :      1.39027001    -0.80233656     0.58212311  Isotope  1

 No symmetry elements were found.


                         SYMGRP: Point group information
                         -------------------------------

@    Full point group is: C(1)           
@    Represented as:      C1 


                                 Isotopic Masses
                                 ---------------

                           N          14.003074
                           N          14.003074
                           N          14.003074
                           N          14.003074

                       Total mass:    56.012296 amu
                       Natural abundance:  98.528 %

 Center-of-mass coordinates (a.u.):   -0.000000    0.000000   -0.000000


  Atoms and basis sets
  --------------------

  Number of atom types :    1
  Total number of atoms:    4

  Basis set used is "def2_svp" from the basis set library.

  label    atoms   charge   prim   cont     basis
  ----------------------------------------------------------------------
  N           4    7.0000    24    14      [7s4p1d|3s2p1d]                                    
  ----------------------------------------------------------------------
  total:      4   28.0000    96    56
  ----------------------------------------------------------------------
  Spherical harmonic basis used.

  Threshold for neglecting AO integrals:  1.00D-12


  Cartesian Coordinates (a.u.)
  ----------------------------

  Total number of coordinates:   12
  N       :     1  x  -1.2141710420    2  y   0.0000000000    3  z   1.1929116538
  N       :     4  x   1.3902700099    5  y  -0.8023365584    6  z   0.5821231056
  N       :     7  x  -0.5808226486    8  y  -0.8023365584    9  z  -1.3773975415
  N       :    10  x   0.4047236807   11  y   1.6046731167   12  z  -0.3976372179


   Interatomic separations (in Angstrom):
   --------------------------------------

            N           N           N           N     
            ------      ------      ------      ------
 N     :    0.000000
 N     :    1.477904    0.000000
 N     :    1.463762    1.470782    0.000000
 N     :    1.470850    1.470782    1.470782    0.000000


  Max    interatomic separation is    1.4779 Angstrom (    2.7928 Bohr)
  between atoms    2 and    1, "N     " and "N     ".

  Min YX interatomic separation is    1.4638 Angstrom (    2.7661 Bohr)


  Bond distances (Angstrom):
  --------------------------

                  atom 1     atom 2       distance
                  ------     ------       --------
  bond distance:  N          N            1.477904
  bond distance:  N          N            1.463762
  bond distance:  N          N            1.470782
  bond distance:  N          N            1.470850
  bond distance:  N          N            1.470782
  bond distance:  N          N            1.470782


  Bond angles (degrees):
  ----------------------

                  atom 1     atom 2     atom 3         angle
                  ------     ------     ------         -----
  bond angle:     N          N          N             59.995
  bond angle:     N          N          N             59.838
  bond angle:     N          N          N             60.156
  bond angle:     N          N          N             59.525
  bond angle:     N          N          N             59.843
  bond angle:     N          N          N             60.000
  bond angle:     N          N          N             60.479
  bond angle:     N          N          N             60.161
  bond angle:     N          N          N             60.000
  bond angle:     N          N          N             60.319
  bond angle:     N          N          N             59.683
  bond angle:     N          N          N             60.000




 Principal moments of inertia (u*A**2) and principal axes
 --------------------------------------------------------

   IA      30.114135          1.000000   -0.000000   -0.000000
   IB      30.293550          0.000000    1.000000    0.000000
   IC      30.470865          0.000000   -0.000000    1.000000


 Rotational constants
 --------------------

               A                   B                   C

          16782.1194          16682.7263          16585.6468 MHz
            0.559791            0.556476            0.553238 cm-1


@  Nuclear repulsion energy :  105.777940462098 Hartree


                     .---------------------------------------.
                     | Starting in Integral Section (HERMIT) |
                     `---------------------------------------'



 ***************************************************************************************
 ****************** Output from **INTEGRALS input processing (HERMIT) ******************
 ***************************************************************************************


 - Using defaults, no **INTEGRALS input found

 Default print level:        1

 * Nuclear model: Point charge

 Calculation of one- and two-electron Hamiltonian integrals.

 Center of mass  (bohr):     -0.000000000000      0.000000000000     -0.000000000000
 Operator center (bohr):      0.000000000000      0.000000000000      0.000000000000
 Gauge origin    (bohr):     -0.000000000000      0.000000000000     -0.000000000000
 Dipole origin   (bohr):     -0.000000000000      0.000000000000     -0.000000000000


     ************************************************************************
     ************************** Output from HERINT **************************
     ************************************************************************



                      Nuclear contribution to dipole moments
                      --------------------------------------

                 au               Debye          C m (/(10**-30)

      x      0.00000000         0.00000000         0.00000000
      y      0.00000000         0.00000000         0.00000000
      z     -0.00000000        -0.00000000        -0.00000000



 Threshold for neglecting two-electron integrals:  1.00D-12
 HERMIT - Number of two-electron integrals written:     1219327 ( 95.7% )
 HERMIT - Megabytes written:                             13.967

  Time used in TWOINT     is       0.42 seconds
  Total CPU  time used in HERMIT:   0.45 seconds
  Total wall time used in HERMIT:   0.45 seconds


                        .----------------------------------.
                        | End of Integral Section (HERMIT) |
                        `----------------------------------'



                   .--------------------------------------------.
                   | Starting in Wave Function Section (SIRIUS) |
                   `--------------------------------------------'


 *** Output from Huckel module :

     Using EWMO model:          T
     Using EHT  model:          F
     Number of Huckel orbitals each symmetry:   20

 EWMO - Energy Weighted Maximum Overlap - is a Huckel type method,
        which normally is better than Extended Huckel Theory.
 Reference: Linderberg and Ohrn, Propagators in Quantum Chemistry (Wiley, 1973)

 Huckel EWMO eigenvalues for symmetry :  1
          -15.676242     -15.670308     -15.670276     -15.670244      -2.063567
           -1.039702      -1.037311      -1.034948      -0.547278      -0.546205
           -0.545222      -0.541058      -0.514209      -0.510696      -0.283486
           -0.282728      -0.282037      -0.237807      -0.236447      -0.235029

 **********************************************************************
 *SIRIUS* a direct, restricted step, second order MCSCF program       *
 **********************************************************************

 
     Date and time (Linux)  : Sun Jan 21 18:24:09 2018
     Host name              : vladimir-Kubuntu-16                     

 Title lines from ".mol" input file:
     N4 molecule                                                             
     ---------------------------                                             

 Print level on unit LUPRI =   2 is   0
 Print level on unit LUW4  =   2 is   5

@    Restricted, closed shell Hartree-Fock calculation.

 Initial molecular orbitals are obtained according to
 ".MOSTART EWMO  " input option

     Wave function specification
     ============================
@    Wave function type        --- HF ---
@    Number of closed shell electrons          28
@    Number of electrons in active shells       0
@    Total charge of the molecule               0

@    Spin multiplicity and 2 M_S                1         0
@    Total number of symmetries                 1 (point group: C1 )
@    Reference state symmetry                   1 (irrep name : A  )

     Orbital specifications
     ======================
@    Abelian symmetry species          All |    1
@                                          |  A  
                                       --- |  ---
@    Occupied SCF orbitals              14 |   14
@    Secondary orbitals                 42 |   42
@    Total number of orbitals           56 |   56
@    Number of basis functions          56 |   56

     Optimization information
     ========================
@    Number of configurations                 1
@    Number of orbital rotations            588
     ------------------------------------------
@    Total number of variables              589

     Maximum number of Fock   iterations      0
     Maximum number of DIIS   iterations     60
     Maximum number of QC-SCF iterations     60
     Threshold for SCF convergence     1.00D-05


 ***********************************************
 ***** DIIS acceleration of SCF iterations *****
 ***********************************************

 C1-DIIS algorithm; max error vectors =    8

 Iter      Total energy        Error norm    Delta(E)  DIIS dim.
 -----------------------------------------------------------------------------

Calculating AOSUPINT
     (Precalculated AO two-electron integrals are transformed to P-supermatrix elements.
      Threshold for discarding integrals :  1.00D-12 )
@  1    -216.561502344        3.65649D+00   -2.17D+02    1
      Virial theorem: -V/T =      2.013122
@    MULPOP   N       0.00; N      -0.01; N       0.01; N      -0.00; 
   1  Level shift: doubly occupied orbital energies shifted by -2.00D-01
 -----------------------------------------------------------------------------
@  2    -217.264365984        9.41363D-01   -7.03D-01    2
      Virial theorem: -V/T =      1.996660
@    MULPOP   N      -0.00; N       0.00; N      -0.00; N      -0.00; 
   2  Level shift: doubly occupied orbital energies shifted by -1.00D-01
 -----------------------------------------------------------------------------
@  3    -217.310688678        1.70550D-01   -4.63D-02    3
      Virial theorem: -V/T =      2.003282
@    MULPOP   N       0.00; N      -0.00; N       0.00; N      -0.00; 
   3  Level shift: doubly occupied orbital energies shifted by -2.50D-02
 -----------------------------------------------------------------------------
@  4    -217.313814035        3.57394D-02   -3.13D-03    4
      Virial theorem: -V/T =      2.002960
@    MULPOP   N      -0.00; N       0.00; N      -0.00; N      -0.00; 
 -----------------------------------------------------------------------------
@  5    -217.313984002        1.35195D-02   -1.70D-04    5
      Virial theorem: -V/T =      2.003101
@    MULPOP   N       0.00; N      -0.00; N       0.00; N      -0.00; 
 -----------------------------------------------------------------------------
@  6    -217.314002046        7.36377D-03   -1.80D-05    6
      Virial theorem: -V/T =      2.003119
@    MULPOP   N      -0.00; N       0.00; N      -0.00; N       0.00; 
 -----------------------------------------------------------------------------
@  7    -217.314007620        1.48894D-03   -5.57D-06    7
      Virial theorem: -V/T =      2.003131
@    MULPOP   N       0.00; N      -0.00; N       0.00; N      -0.00; 
 -----------------------------------------------------------------------------
@  8    -217.314008039        1.82308D-04   -4.18D-07    8
      Virial theorem: -V/T =      2.003142
@    MULPOP   N      -0.00; N      -0.00; N       0.00; N      -0.00; 
 -----------------------------------------------------------------------------
@  9    -217.314008041        1.08128D-04   -2.28D-09    8
      Virial theorem: -V/T =      2.003142
@    MULPOP   N       0.00; N      -0.00; N       0.00; N      -0.00; 
 -----------------------------------------------------------------------------
@ 10    -217.314008042        1.39002D-05   -6.58D-10    8
      Virial theorem: -V/T =      2.003142
@    MULPOP   N       0.00; N      -0.00; N       0.00; N      -0.00; 
 -----------------------------------------------------------------------------
@ 11    -217.314008042        6.37181D-06   -3.03D-11    8

@ *** DIIS converged in  11 iterations !
@     Converged SCF energy, gradient:   -217.314008041678    6.37D-06
    - total time used in SIRFCK :              0.00 seconds


 *** SCF orbital energy analysis ***

 Only the 20 lowest virtual orbital energies printed in each symmetry.

 Number of electrons :   28
 Orbital occupations :   14

 Sym       Hartree-Fock orbital energies

1 A     -15.75273321   -15.75207087   -15.75204652   -15.75202756    -1.66780508
         -1.04590877    -1.04246981    -1.03908129    -0.69409521    -0.57809095
         -0.57697574    -0.57579655    -0.54974223    -0.54443125     0.18400233
          0.18603970     0.18787428     0.28256685     0.28592497     0.28951333
          0.74094447     0.87052885     0.87165721     0.87279354     0.92437629
          0.92476980     0.92514846     0.92857712     0.93066418     1.07123673
          1.07151692     1.07181311     1.10602912     1.23409233

    E(LUMO) :     0.18400233 au (symmetry 1)
  - E(HOMO) :    -0.54443125 au (symmetry 1)
  ------------------------------------------
    gap     :     0.72843358 au

 --- Writing SIRIFC interface file

 CPU and wall time for SCF :       0.128       0.129


                       .-----------------------------------.
                       | --- Final results from SIRIUS --- |
                       `-----------------------------------'


@    Spin multiplicity:           1
@    Spatial symmetry:            1 ( irrep  A   in C1  )
@    Total charge of molecule:    0

@    Final HF energy:            -217.314008041678                 
@    Nuclear repulsion:           105.777940462098
@    Electronic energy:          -323.091948503775

@    Final gradient norm:           0.000006371807

 
     Date and time (Linux)  : Sun Jan 21 18:24:09 2018
     Host name              : vladimir-Kubuntu-16                     

File label for MO orbitals:  21Jan18   FOCKDIIS

 (Only coefficients > 0.0100 are printed.)

 Molecular orbitals for symmetry species 1  (A  )
 ------------------------------------------------

    Orbital         5        6        7        8        9       10       11
   1 N   :1s    -0.1300  -0.1595   0.0439  -0.1591  -0.0642   0.0721  -0.0705
   2 N   :1s    -0.2621  -0.3382   0.0932  -0.3372  -0.1288   0.1673  -0.1638
   3 N   :1s    -0.0703  -0.3078   0.0856  -0.3123  -0.1842   0.1257  -0.1221
   4 N   :2px    0.0960  -0.0898  -0.0022   0.1035  -0.2064   0.0178  -0.1427
   5 N   :2py   -0.0000  -0.0277  -0.1934  -0.0257  -0.0000   0.0998   0.2151
   6 N   :2pz   -0.0964  -0.1071   0.0016   0.0935   0.2029  -0.2828   0.1482
   7 N   :2px   -0.0269  -0.0199   0.0124  -0.0715   0.1004  -0.0415   0.1088
   8 N   :2py   -0.0000   0.0070   0.0509   0.0071   0.0000  -0.0539  -0.1164
   9 N   :2pz    0.0266   0.0712  -0.0127   0.0192  -0.0980   0.1845  -0.1115
  10 N   :3d2-  -0.0000   0.0014   0.0222   0.0046  -0.0001  -0.0049  -0.0174
  11 N   :3d1-  -0.0000  -0.0049  -0.0221  -0.0013  -0.0001   0.0121   0.0185
  12 N   :3d0   -0.0057  -0.0207  -0.0012   0.0185   0.0085  -0.0222  -0.0011
  13 N   :3d1+   0.0201   0.0032  -0.0026   0.0028  -0.0312   0.0040  -0.0084
  14 N   :3d2+  -0.0101   0.0092  -0.0021  -0.0132   0.0159   0.0058  -0.0020
  15 N   :1s    -0.1292   0.1710  -0.1211  -0.0946  -0.0642  -0.1183  -0.0261
  16 N   :1s    -0.2604   0.3624  -0.2568  -0.2005  -0.1288  -0.2749  -0.0606
  17 N   :1s    -0.0693   0.3298  -0.2349  -0.1852  -0.1846  -0.2061  -0.0455
  18 N   :2px   -0.1097  -0.0653  -0.0632  -0.0671   0.2340   0.2461   0.2009
  19 N   :2py    0.0636  -0.1008  -0.1403   0.0141  -0.1350  -0.1725   0.1464
  20 N   :2pz   -0.0468   0.0523  -0.0647   0.1647   0.0980   0.1841  -0.0603
  21 N   :2px    0.0303  -0.0363   0.0544   0.0478  -0.1131  -0.1931  -0.1210
  22 N   :2py   -0.0176   0.0572   0.0148  -0.0210   0.0653   0.1273  -0.0707
  23 N   :2pz    0.0128  -0.0365   0.0331  -0.0311  -0.0471  -0.1247   0.0271
  24 N   :3d2-   0.0153  -0.0085  -0.0114   0.0081  -0.0238  -0.0068   0.0121
  25 N   :3d1-   0.0065  -0.0105  -0.0045  -0.0095  -0.0100  -0.0077   0.0104
  26 N   :3d0    0.0075   0.0015  -0.0065   0.0156  -0.0116   0.0025  -0.0130
  27 N   :3d1+  -0.0112   0.0048  -0.0132   0.0190   0.0172   0.0089   0.0007
  28 N   :3d2+  -0.0088  -0.0162  -0.0195  -0.0095   0.0138   0.0010   0.0225
  29 N   :1s    -0.1309  -0.0935  -0.1206   0.1709  -0.0642   0.0238  -0.0219
  30 N   :1s    -0.2637  -0.1983  -0.2556   0.3625  -0.1287   0.0550  -0.0509
  31 N   :1s    -0.0714  -0.1809  -0.2355   0.3358  -0.1838   0.0416  -0.0376
  32 N   :2px    0.0461  -0.1666   0.0645  -0.0514  -0.0997  -0.2022   0.0701
  33 N   :2py    0.0647   0.0141  -0.1417  -0.1006  -0.1379   0.1622   0.1669
  34 N   :2pz    0.1115   0.0699   0.0641   0.0696  -0.2366   0.0765  -0.2078
  35 N   :2px   -0.0131   0.0312  -0.0329   0.0361   0.0487   0.1042  -0.0332
  36 N   :2py   -0.0181  -0.0208   0.0152   0.0583   0.0670  -0.0949  -0.0843
  37 N   :2pz   -0.0313  -0.0475  -0.0553   0.0359   0.1151  -0.0531   0.1246
  38 N   :3d2-  -0.0065   0.0098   0.0045   0.0105   0.0101   0.0127  -0.0108
  39 N   :3d1-  -0.0155  -0.0082   0.0115   0.0083   0.0240  -0.0161  -0.0125
  40 N   :3d0   -0.0114  -0.0162  -0.0138  -0.0152   0.0177  -0.0024   0.0275
  41 N   :3d1+  -0.0111   0.0195  -0.0132   0.0046   0.0175   0.0166  -0.0000
  42 N   :3d2+   0.0021   0.0086  -0.0156  -0.0069  -0.0034   0.0175   0.0017
  43 N   :1s    -0.1300   0.0834   0.1978   0.0814  -0.0642   0.0220   0.1185
  44 N   :1s    -0.2620   0.1767   0.4192   0.1726  -0.1287   0.0509   0.2753
  45 N   :1s    -0.0703   0.1616   0.3849   0.1591  -0.1842   0.0388   0.2052
  46 N   :2px   -0.0325  -0.1759   0.0703   0.0196   0.0689  -0.2583  -0.0459
  47 N   :2py   -0.1282   0.0455  -0.0220   0.0439   0.2728  -0.0005  -0.3489
  48 N   :2pz    0.0316  -0.0197  -0.0686   0.1788  -0.0676   0.0019   0.0248
  49 N   :2px    0.0089   0.0382  -0.0367  -0.0127  -0.0332   0.1418   0.0434
  50 N   :2py    0.0357  -0.0425  -0.0665  -0.0413  -0.1322   0.0128   0.2592
  51 N   :2pz   -0.0089   0.0127   0.0360  -0.0401   0.0329  -0.0040  -0.0302
  52 N   :3d2-  -0.0090  -0.0250   0.0105   0.0061   0.0140  -0.0264  -0.0001
  53 N   :3d1-   0.0088  -0.0061  -0.0102   0.0253  -0.0137   0.0002  -0.0021
  54 N   :3d0    0.0098  -0.0015   0.0022  -0.0104  -0.0150   0.0056   0.0068
  56 N   :3d2+   0.0167  -0.0131   0.0043  -0.0077  -0.0260  -0.0153   0.0114

    Orbital        12       13       14       15       16       17       18
   1 N   :1s     0.0704   0.0021  -0.0018  -0.0040  -0.0007  -0.0039  -0.1146
   2 N   :1s     0.1638   0.0055  -0.0047  -0.0094  -0.0017  -0.0092  -0.2717
   3 N   :1s     0.1210   0.0013  -0.0007  -0.0300  -0.0056  -0.0300  -1.1083
   4 N   :2px    0.2733   0.1652  -0.1699   0.2331   0.0425   0.2213   0.2747
   5 N   :2py    0.1122   0.2303   0.2359  -0.3075   0.0099   0.3160  -0.0114
   6 N   :2pz   -0.0142   0.1591  -0.1654   0.2156   0.0392   0.2041  -0.1644
   7 N   :2px   -0.1799  -0.1109   0.1150  -0.3425  -0.0623  -0.3247  -0.8571
   8 N   :2py   -0.0607  -0.1527  -0.1579   0.4438  -0.0126  -0.4552   0.0610
   9 N   :2pz    0.0394  -0.1041   0.1093  -0.3055  -0.0554  -0.2878   0.3393
  10 N   :3d2-  -0.0132  -0.0026  -0.0245  -0.0089  -0.0009  -0.0015  -0.0110
  11 N   :3d1-   0.0053   0.0242   0.0028  -0.0019  -0.0010  -0.0082  -0.0061
  12 N   :3d0    0.0160   0.0229  -0.0102  -0.0014  -0.0006  -0.0072  -0.0194
  13 N   :3d1+   0.0037   0.0078   0.0075   0.0042   0.0003  -0.0032   0.0139
  14 N   :3d2+  -0.0156   0.0020   0.0212   0.0078   0.0008  -0.0034   0.0053
  15 N   :1s     0.0237  -0.0012  -0.0010   0.0033   0.0005   0.0008   0.1457
  16 N   :1s     0.0552  -0.0027  -0.0028   0.0078   0.0011   0.0021   0.3442
  17 N   :1s     0.0406  -0.0020  -0.0001   0.0259   0.0057   0.0057   1.4146
  18 N   :2px   -0.0714  -0.1524   0.1233   0.2094   0.1643  -0.0144   0.3530
  19 N   :2py    0.1627  -0.2988  -0.0193   0.0678   0.3525  -0.1455  -0.1543
  20 N   :2pz    0.1925  -0.0360  -0.3125  -0.3679   0.1022  -0.1580   0.1141
  21 N   :2px    0.0513   0.1001  -0.0833  -0.3084  -0.2383   0.0180  -1.0232
  22 N   :2py   -0.0949   0.1976   0.0135  -0.0939  -0.5060   0.2130   0.3641
  23 N   :2pz   -0.0990   0.0237   0.2082   0.5296  -0.1466   0.2346  -0.2458
  24 N   :3d2-   0.0161  -0.0033  -0.0081   0.0027   0.0011   0.0003  -0.0112
  25 N   :3d1-  -0.0124  -0.0189  -0.0016   0.0012  -0.0070   0.0040  -0.0109
  26 N   :3d0    0.0159  -0.0157  -0.0071  -0.0021  -0.0063   0.0029  -0.0074
  27 N   :3d1+   0.0155  -0.0070  -0.0291   0.0097  -0.0028   0.0050   0.0152
  28 N   :3d2+   0.0072  -0.0240   0.0161  -0.0073  -0.0049  -0.0000  -0.0056
  29 N   :1s    -0.1182   0.0012   0.0011   0.0007   0.0005   0.0031  -0.0489
  30 N   :1s    -0.2747   0.0032   0.0025   0.0017   0.0011   0.0072  -0.1163
  31 N   :1s    -0.2034   0.0003   0.0019   0.0052   0.0058   0.0248  -0.4717
  32 N   :2px   -0.1761   0.3029   0.0402  -0.1634   0.0953  -0.3691   0.1659
  33 N   :2py   -0.1772  -0.0228  -0.2829   0.1293  -0.3615  -0.0728   0.0271
  34 N   :2pz   -0.2488  -0.1101   0.1523  -0.0096   0.1666   0.1828   0.0768
  35 N   :2px    0.1211  -0.2017  -0.0271   0.2284  -0.1381   0.5327  -0.6228
  36 N   :2py    0.1322   0.0144   0.1897  -0.1830   0.5236   0.1087  -0.0213
  37 N   :2pz    0.1960   0.0721  -0.1027   0.0167  -0.2388  -0.2570  -0.1688
  38 N   :3d2-   0.0078   0.0024   0.0184   0.0033  -0.0074   0.0017  -0.0049
  39 N   :3d1-   0.0065   0.0082   0.0020   0.0003   0.0015   0.0029  -0.0127
  40 N   :3d0   -0.0002   0.0159  -0.0114   0.0008   0.0010   0.0048  -0.0152
  41 N   :3d1+   0.0081  -0.0291  -0.0068  -0.0032   0.0030  -0.0080   0.0243
  42 N   :3d2+   0.0020   0.0025  -0.0255  -0.0015   0.0084   0.0052   0.0066
  43 N   :1s     0.0246  -0.0022   0.0018  -0.0001  -0.0003  -0.0000   0.0171
  44 N   :1s     0.0573  -0.0052   0.0042  -0.0001  -0.0005  -0.0000   0.0405
  45 N   :1s     0.0418  -0.0031   0.0024  -0.0011  -0.0059  -0.0006   0.1656
  46 N   :2px   -0.0066  -0.3237   0.0076  -0.2516  -0.2985   0.1745   0.1384
  47 N   :2py   -0.0089   0.0864   0.0707   0.1001  -0.0054  -0.1075   0.0135
  48 N   :2pz    0.2723  -0.0115   0.3178   0.1504  -0.3116  -0.2546  -0.0048
  49 N   :2px    0.0076   0.2139  -0.0048   0.3549   0.4300  -0.2555  -0.5636
  50 N   :2py    0.0200  -0.0584  -0.0463  -0.1410   0.0105   0.1581   0.0071
  51 N   :2pz   -0.1520   0.0079  -0.2132  -0.2133   0.4497   0.3747   0.0039
  52 N   :3d2-  -0.0003  -0.0241   0.0092   0.0015   0.0067  -0.0002  -0.0234
  53 N   :3d1-   0.0272  -0.0093   0.0230   0.0002   0.0070   0.0026  -0.0092
  54 N   :3d0   -0.0157  -0.0112   0.0031   0.0016   0.0063  -0.0002  -0.0099
  55 N   :3d1+   0.0024   0.0205   0.0204  -0.0074   0.0005   0.0094   0.0173
  56 N   :3d2+  -0.0027  -0.0044  -0.0116   0.0008  -0.0038  -0.0026  -0.0071

    Orbital        19       20       21       22       23       24
   1 N   :1s     0.0345   0.1167   0.1330   0.0566   0.0076   0.0574
   2 N   :1s     0.0814   0.2745   0.7065   0.2955   0.0404   0.3095
   3 N   :1s     0.3400   1.1723  -0.5932   0.4200   0.0549   0.3959
   4 N   :2px   -0.0682  -0.1569   0.1826   0.5168   0.0461   0.2443
   5 N   :2py   -0.1206   0.0246   0.0000  -0.0187   0.2734  -0.0178
   6 N   :2pz    0.0644   0.2925  -0.1808  -0.2378  -0.0553  -0.5143
   7 N   :2px    0.1852   0.3472   0.1506   0.8198   0.0810   0.4710
   8 N   :2py    0.5313  -0.0976   0.0000  -0.0226   0.3400  -0.0225
   9 N   :2pz   -0.1814  -0.9150  -0.1454  -0.4639  -0.0901  -0.7974
  10 N   :3d2-  -0.0198  -0.0055   0.0002  -0.0102   0.0197   0.0081
  11 N   :3d1-   0.0189  -0.0122   0.0002  -0.0092  -0.0186   0.0124
  12 N   :3d0    0.0083  -0.0150   0.0027  -0.0126  -0.0090   0.0212
  13 N   :3d1+   0.0048  -0.0133  -0.0102  -0.0105  -0.0116  -0.0131
  14 N   :3d2+   0.0147   0.0142   0.0052   0.0163  -0.0136  -0.0020
  15 N   :1s     0.0675   0.0442   0.1338  -0.0684   0.0362   0.0251
  16 N   :1s     0.1589   0.1035   0.7114  -0.3606   0.1933   0.1365
  17 N   :1s     0.6674   0.4458  -0.6065  -0.4964   0.2530   0.1695
  18 N   :2px    0.0913   0.0755  -0.2070   0.6049  -0.1586  -0.1184
  19 N   :2py   -0.1860  -0.0239   0.1204  -0.2063   0.3758   0.0504
  20 N   :2pz    0.0669   0.1415  -0.0875   0.1396  -0.0959  -0.3260
  21 N   :2px   -0.1606  -0.1657  -0.1651   0.9899  -0.3166  -0.2285
  22 N   :2py    0.6711   0.0078   0.0967  -0.3898   0.5373   0.1086
  23 N   :2pz   -0.1862  -0.5883  -0.0686   0.2698  -0.1681  -0.4365
  24 N   :3d2-  -0.0017  -0.0121  -0.0078   0.0129  -0.0095   0.0034
  25 N   :3d1-   0.0126  -0.0047  -0.0033  -0.0016  -0.0181   0.0024
  26 N   :3d0    0.0083  -0.0130  -0.0040   0.0025  -0.0164   0.0066
  27 N   :3d1+   0.0067  -0.0244   0.0057  -0.0020  -0.0010   0.0311
  28 N   :3d2+   0.0265   0.0091   0.0042  -0.0215  -0.0178  -0.0066
  29 N   :1s     0.0638  -0.1475   0.1322   0.0253   0.0346  -0.0682
  30 N   :1s     0.1511  -0.3480   0.7012   0.1306   0.1825  -0.3641
  31 N   :1s     0.6264  -1.4758  -0.5790   0.1927   0.2563  -0.4820
  32 N   :2px   -0.0579   0.0871   0.0881   0.3249   0.0859  -0.1417
  33 N   :2py   -0.1781   0.1549   0.1219   0.0556   0.3713  -0.2165
  34 N   :2pz   -0.0839   0.3624   0.2108   0.1285   0.1504  -0.6087
  35 N   :2px    0.1637  -0.1933   0.0745   0.4445   0.1589  -0.2745
  36 N   :2py    0.6564  -0.3835   0.1008   0.1222   0.5310  -0.4038
  37 N   :2pz    0.1361  -1.0684   0.1754   0.2494   0.3079  -0.9811
  38 N   :3d2-  -0.0133  -0.0108   0.0032  -0.0020   0.0188   0.0024
  39 N   :3d1-   0.0016  -0.0107   0.0078  -0.0043   0.0083  -0.0129
  40 N   :3d0    0.0184   0.0017   0.0058  -0.0112  -0.0074  -0.0190
  41 N   :3d1+   0.0071  -0.0167   0.0056   0.0302  -0.0015   0.0001
  42 N   :3d2+   0.0206   0.0092  -0.0008   0.0027  -0.0228  -0.0089
  43 N   :1s    -0.1658  -0.0141   0.1330  -0.0147  -0.0785  -0.0131
  44 N   :1s    -0.3915  -0.0333   0.7063  -0.0780  -0.4163  -0.0696
  45 N   :1s    -1.6338  -0.1419  -0.5929  -0.1113  -0.5642  -0.0883
  46 N   :2px   -0.0928  -0.0068  -0.0604   0.2967   0.1274   0.0196
  47 N   :2py   -0.4302  -0.0090  -0.2422   0.0651   0.7173   0.0557
  48 N   :2pz    0.0976   0.1202   0.0607  -0.0185  -0.1312  -0.2901
  49 N   :2px    0.2388   0.0150  -0.0478   0.3874   0.2374   0.0368
  50 N   :2py    1.1984  -0.0254  -0.1973   0.1416   1.2005   0.1180
  51 N   :2pz   -0.2527  -0.5426   0.0509  -0.0378  -0.2384  -0.3695
  52 N   :3d2-  -0.0099  -0.0083   0.0042  -0.0250  -0.0050   0.0079
  53 N   :3d1-   0.0089  -0.0234  -0.0048  -0.0073   0.0051   0.0245
  54 N   :3d0    0.0075   0.0012  -0.0050  -0.0082   0.0104   0.0029
  55 N   :3d1+   0.0053  -0.0176  -0.0011   0.0189  -0.0048   0.0193
  56 N   :3d2+   0.0133   0.0121  -0.0084  -0.0012   0.0167  -0.0095

  Total CPU  time used in SIRIUS :   0.16 seconds
  Total wall time used in SIRIUS :   0.16 seconds

 
     Date and time (Linux)  : Sun Jan 21 18:24:09 2018
     Host name              : vladimir-Kubuntu-16                     


                     .---------------------------------------.
                     | End of Wave Function Section (SIRIUS) |
                     `---------------------------------------'

  Total CPU  time used in DALTON:   0.62 seconds
  Total wall time used in DALTON:   0.62 seconds

 
     Date and time (Linux)  : Sun Jan 21 18:24:09 2018
     Host name              : vladimir-Kubuntu-16                     
