[Molden Format]
[Title]
 Molden file created by orca_2mkl for BaseName=./N4

[Atoms] AU
N    1   7          0.9826575896         1.0015548510         0.9637603283 
N    2   7         -0.9826575896        -0.9826575896         0.9826575896 
N    3   7         -0.9826575896         0.9826575896        -0.9826575896 
N    4   7          0.9826575896        -0.9826575896        -0.9826575896 
[GTO]
  1 0
s   6 1.0 
    19730.8006470000         0.6956035199
     2957.8958745000         1.2986099328
      673.2213359500         2.2190880635
      190.6824949400         3.4636607549
       62.2954418980         4.6967555531
       22.6541611820         4.9522510945
s   2 1.0 
        8.9791477428         2.3880677979
        3.6863002370         0.7337878750
s   1 1.0 
        0.8466007680         0.6290267082
s   1 1.0 
        0.3364713377         0.3148626514
s   1 1.0 
        0.1364765367         0.1600308040
p   4 1.0 
       49.2003805100         2.1264813968
       11.3467905370         2.3279367185
        3.4273972411         2.0485729192
        1.1785525134         1.2607319854
p   1 1.0 
        0.4164220497         0.4768230427
p   1 1.0 
        0.1426082601         0.1249168256
d   1 1.0 
        1.6540000000         6.8771297418
d   1 1.0 
        0.4690000000         0.7577440909
f   1 1.0 
        1.0930000000         6.9645882147

  2 0
s   6 1.0 
    19730.8006470000         0.6956035199
     2957.8958745000         1.2986099328
      673.2213359500         2.2190880635
      190.6824949400         3.4636607549
       62.2954418980         4.6967555531
       22.6541611820         4.9522510945
s   2 1.0 
        8.9791477428         2.3880677979
        3.6863002370         0.7337878750
s   1 1.0 
        0.8466007680         0.6290267082
s   1 1.0 
        0.3364713377         0.3148626514
s   1 1.0 
        0.1364765367         0.1600308040
p   4 1.0 
       49.2003805100         2.1264813968
       11.3467905370         2.3279367185
        3.4273972411         2.0485729192
        1.1785525134         1.2607319854
p   1 1.0 
        0.4164220497         0.4768230427
p   1 1.0 
        0.1426082601         0.1249168256
d   1 1.0 
        1.6540000000         6.8771297418
d   1 1.0 
        0.4690000000         0.7577440909
f   1 1.0 
        1.0930000000         6.9645882147

  3 0
s   6 1.0 
    19730.8006470000         0.6956035199
     2957.8958745000         1.2986099328
      673.2213359500         2.2190880635
      190.6824949400         3.4636607549
       62.2954418980         4.6967555531
       22.6541611820         4.9522510945
s   2 1.0 
        8.9791477428         2.3880677979
        3.6863002370         0.7337878750
s   1 1.0 
        0.8466007680         0.6290267082
s   1 1.0 
        0.3364713377         0.3148626514
s   1 1.0 
        0.1364765367         0.1600308040
p   4 1.0 
       49.2003805100         2.1264813968
       11.3467905370         2.3279367185
        3.4273972411         2.0485729192
        1.1785525134         1.2607319854
p   1 1.0 
        0.4164220497         0.4768230427
p   1 1.0 
        0.1426082601         0.1249168256
d   1 1.0 
        1.6540000000         6.8771297418
d   1 1.0 
        0.4690000000         0.7577440909
f   1 1.0 
        1.0930000000         6.9645882147

  4 0
s   6 1.0 
    19730.8006470000         0.6956035199
     2957.8958745000         1.2986099328
      673.2213359500         2.2190880635
      190.6824949400         3.4636607549
       62.2954418980         4.6967555531
       22.6541611820         4.9522510945
s   2 1.0 
        8.9791477428         2.3880677979
        3.6863002370         0.7337878750
s   1 1.0 
        0.8466007680         0.6290267082
s   1 1.0 
        0.3364713377         0.3148626514
s   1 1.0 
        0.1364765367         0.1600308040
p   4 1.0 
       49.2003805100         2.1264813968
       11.3467905370         2.3279367185
        3.4273972411         2.0485729192
        1.1785525134         1.2607319854
p   1 1.0 
        0.4164220497         0.4768230427
p   1 1.0 
        0.1426082601         0.1249168256
d   1 1.0 
        1.6540000000         6.8771297418
d   1 1.0 
        0.4690000000         0.7577440909
f   1 1.0 
        1.0930000000         6.9645882147

[5D]
[9G]
[MO]
 Sym=     1a
 Ene= -1.57508683981037E+01
 Spin= Alpha
 Occup= 2.000000
  1      -0.226353757050
  2      -0.317570187364
  3      -0.009884121024
  4       0.002903410961
  5      -0.000605486236
  6       0.001150822313
  7       0.001154975685
  8       0.001145872590
  9      -0.000432860626
 10      -0.000481611091
 11      -0.000397565924
 12       0.000159949559
 13       0.000163595685
 14       0.000157037369
 15      -0.000001326296
 16      -0.000162636528
 17      -0.000159424525
 18      -0.000001161420
 19      -0.000156900399
 20      -0.000017465823
 21       0.000128491373
 22       0.000150462456
 23      -0.000012810751
 24       0.000166618134
 25       0.000036237432
 26      -0.000018423278
 27      -0.000019431379
 28       0.000002451386
 29       0.000008517019
 30      -0.000030258733
 31       0.000027553743
 32      -0.215702666835
 33      -0.302629735190
 34      -0.009309870952
 35       0.002432147917
 36      -0.000553864484
 37      -0.001080658039
 38      -0.001085681924
 39       0.001097042195
 40       0.000311652881
 41       0.000263006879
 42      -0.000285176869
 43      -0.000159863351
 44      -0.000156790680
 45       0.000159876080
 46      -0.000002881854
 47       0.000152771913
 48       0.000156564030
 49       0.000002081671
 50      -0.000151318370
 51       0.000000641658
 52      -0.000113189349
 53      -0.000088671653
 54       0.000012893127
 55       0.000100784833
 56       0.000030629843
 57       0.000021077651
 58       0.000018060153
 59      -0.000004472927
 60       0.000012105884
 61       0.000022071914
 62      -0.000024395207
 63      -0.232915220896
 64      -0.326773451334
 65      -0.010248199382
 66       0.003212452348
 67      -0.000641742088
 68      -0.001199170141
 69       0.001180622011
 70      -0.001194146597
 71       0.000511540317
 72      -0.000553657724
 73       0.000547949102
 74      -0.000160803999
 75       0.000161239205
 76      -0.000163396704
 77      -0.000000447418
 78      -0.000167067367
 79       0.000160443607
 80      -0.000004314005
 81       0.000163564135
 82       0.000004765011
 83       0.000173310740
 84      -0.000194161976
 85      -0.000010196700
 86      -0.000175692277
 87      -0.000038535706
 88       0.000023768094
 89      -0.000025957612
 90      -0.000002202551
 91       0.000005697779
 92       0.000029902304
 93       0.000027880227
 94      -0.223110418392
 95      -0.313020253412
 96      -0.009715599186
 97       0.002768413742
 98      -0.000592397141
 99       0.001132723648
100      -0.001138029558
101      -0.001128033711
102      -0.000401434026
103       0.000349385612
104       0.000434592543
105       0.000160523047
106      -0.000157393143
107      -0.000163029480
108       0.000003163908
109       0.000154408595
110      -0.000158422599
111       0.000002213006
112       0.000161317313
113       0.000017725090
114      -0.000159154496
115       0.000132575783
116       0.000013684515
117      -0.000116125550
118      -0.000034053217
119      -0.000027004042
120       0.000022546502
121       0.000004095964
122       0.000009158239
123      -0.000021916551
124      -0.000025178814
 Sym=     1a
 Ene= -1.57499543479671E+01
 Spin= Alpha
 Occup= 2.000000
  1       0.124748961235
  2       0.175007066599
  3       0.006452170342
  4      -0.005310982192
  5       0.000408523073
  6      -0.000626826691
  7      -0.000743806309
  8      -0.000647176159
  9       0.002833926143
 10       0.000058205205
 11       0.002201652753
 12      -0.000004181207
 13       0.000067912838
 14       0.000012583396
 15      -0.000029780769
 16      -0.000043079966
 17       0.000125812868
 18      -0.000093536166
 19       0.000087946137
 20      -0.000232934264
 21      -0.001383169917
 22       0.000073842869
 23      -0.000756287525
 24      -0.000251640227
 25      -0.000045823109
 26       0.000172214138
 27      -0.000008691233
 28       0.000242422513
 29       0.000043119440
 30      -0.000083312207
 31      -0.000077375486
 32       0.069493515618
 33       0.097490794775
 34       0.003570076885
 35      -0.002856182620
 36       0.000241701460
 37       0.000439100925
 38       0.000331839280
 39      -0.000350126117
 40       0.000805642448
 41      -0.001930346986
 42       0.001576883329
 43      -0.000050836170
 44       0.000020124288
 45      -0.000005663239
 46      -0.000037836279
 47      -0.000096762062
 48       0.000071979385
 49       0.000090474373
 50       0.000074099984
 51      -0.000316001411
 52      -0.000273769857
 53       0.001181314098
 54       0.000738109101
 55       0.000089121293
 56      -0.000024118607
 57       0.000006022896
 58      -0.000182020403
 59      -0.000243186445
 60       0.000019196519
 61      -0.000041148438
 62      -0.000113499641
 63      -0.376502614320
 64      -0.528178066822
 65      -0.019653290470
 66       0.016396557410
 67      -0.001325875606
 68      -0.002048820665
 69       0.002035474941
 70      -0.002066370743
 71       0.005560365224
 72      -0.005204660173
 73       0.004919225098
 74       0.000063936337
 75      -0.000068636333
 76       0.000077400473
 77      -0.000019933760
 78      -0.000178765565
 79       0.000192237479
 80       0.000006144186
 81       0.000154983779
 82      -0.000155388784
 83       0.001583446230
 84      -0.001406111706
 85       0.000090859868
 86      -0.001738030976
 87      -0.000143953449
 88       0.000061220079
 89      -0.000041625229
 90       0.000026708419
 91      -0.000107493672
 92       0.000128499657
 93       0.000144396546
 94       0.199298543124
 95       0.279588146450
 96       0.010325619866
 97      -0.008412934605
 98       0.000715521759
 99      -0.001044550393
100       0.001059052404
101       0.001135684297
102       0.003554748976
103      -0.003291262054
104      -0.001158370666
105       0.000006949562
106      -0.000011690615
107      -0.000059916810
108       0.000085303732
109      -0.000131441807
110       0.000148428774
111      -0.000009284179
112      -0.000001220658
113       0.000707039373
114       0.000477341196
115      -0.000336161090
116      -0.000069196661
117       0.001612077962
118       0.000077186630
119      -0.000105772730
120       0.000124761878
121      -0.000023750982
122       0.000055529180
123       0.000173068460
124       0.000187404806
 Sym=     1a
 Ene= -1.57499428573859E+01
 Spin= Alpha
 Occup= 2.000000
  1      -0.366341501977
  2      -0.513924230641
  3      -0.019068069882
  4       0.015752071836
  5      -0.001290417444
  6       0.002008895400
  7       0.001985124593
  8       0.001975040271
  9      -0.004535340698
 10      -0.005522149876
 11      -0.004992509828
 12      -0.000075906197
 13      -0.000050689069
 14      -0.000064776623
 15       0.000000355063
 16      -0.000200342028
 17      -0.000141258096
 18      -0.000031929805
 19      -0.000170550941
 20      -0.000026670432
 21       0.001264351363
 22       0.001772520790
 23      -0.000276890615
 24       0.001518614085
 25       0.000141371796
 26      -0.000049526962
 27      -0.000111668118
 28       0.000086099234
 29      -0.000104230646
 30      -0.000136965900
 31       0.000077347114
 32       0.127956799679
 33       0.179504691338
 34       0.006620357379
 35      -0.005312034545
 36       0.000477211882
 37       0.000679736810
 38       0.000643547546
 39      -0.000756799101
 40      -0.001944379585
 41      -0.002930560841
 42       0.000178078345
 43      -0.000007151643
 44       0.000020925597
 45       0.000047227046
 46       0.000088546856
 47      -0.000137276554
 48      -0.000078067746
 49       0.000032872379
 50      -0.000035083253
 51       0.000711265879
 52      -0.000145009394
 53       0.000368161805
 54       0.000272789971
 55      -0.001325693091
 56      -0.000050818816
 57       0.000167866961
 58       0.000102401897
 59      -0.000085734593
 60       0.000035550698
 61      -0.000193280997
 62       0.000134231535
 63       0.021570208571
 64       0.030261253217
 65       0.001107824335
 66      -0.000941832075
 67       0.000042554445
 68       0.000089592791
 69      -0.000184161390
 70       0.000071127742
 71      -0.000950726620
 72      -0.001459717943
 73      -0.001401756266
 74       0.000007308721
 75       0.000054104023
 76       0.000014576619
 77      -0.000062092052
 78      -0.000097094350
 79      -0.000049548502
 80      -0.000078745946
 81      -0.000078541851
 82      -0.000507565160
 83      -0.001015789423
 84      -0.000253822101
 85      -0.000646642921
 86      -0.000504358116
 87       0.000006056964
 88      -0.000198777992
 89       0.000039418110
 90      -0.000208664128
 91       0.000006665422
 92       0.000149558652
 93       0.000017356938
 94       0.225438530435
 95       0.316258361291
 96       0.011704661054
 97      -0.009599666321
 98       0.000792347065
 99      -0.001277620854
100       0.001189297155
101       0.001201460230
102       0.001654149209
103      -0.004025979109
104      -0.003474712368
105       0.000070344914
106      -0.000010703202
107      -0.000027541930
108      -0.000024210032
109      -0.000163496560
110       0.000019281842
111       0.000078115880
112      -0.000133823327
113      -0.000183420605
114       0.000418591798
115      -0.001669127079
116       0.000647457216
117       0.000686165298
118       0.000087476466
119       0.000017373489
120      -0.000174923815
121       0.000210901134
122       0.000064050460
123       0.000095535395
124      -0.000038161667
 Sym=     1a
 Ene= -1.57499182044638E+01
 Spin= Alpha
 Occup= 2.000000
  1       0.029044755108
  2       0.040743653599
  3       0.001542259345
  4      -0.001276447737
  5       0.000130151544
  6      -0.000114479392
  7      -0.000147366187
  8      -0.000223609743
  9       0.001633432389
 10       0.000812634194
 11      -0.001247882289
 12      -0.000026520323
 13      -0.000008149993
 14       0.000037473226
 15       0.000092026601
 16       0.000040588583
 17       0.000092037798
 18      -0.000026702865
 19      -0.000088326815
 20       0.000758842621
 21       0.000108306784
 22       0.000552804238
 23      -0.000217804744
 24      -0.001007024059
 25      -0.000006223994
 26      -0.000139923398
 27      -0.000198991646
 28       0.000074709836
 29       0.000001198879
 30       0.000125017772
 31      -0.000168346735
 32      -0.366223936081
 33      -0.513761471632
 34      -0.018974685613
 35       0.015484142771
 36      -0.001266553627
 37      -0.001962682483
 38      -0.002001678698
 39       0.001978066736
 40       0.005099722203
 41       0.004287485772
 42      -0.005385138528
 43       0.000055015831
 44       0.000077513310
 45      -0.000052778137
 46       0.000020694038
 47       0.000132580001
 48       0.000184657482
 49       0.000027578327
 50      -0.000194550748
 51       0.000207552408
 52      -0.001839208346
 53      -0.001400300541
 54       0.000213328078
 55       0.001255595709
 56       0.000136033620
 57       0.000157751088
 58       0.000100047590
 59      -0.000073116985
 60      -0.000106552824
 61       0.000049539612
 62      -0.000092918686
 63       0.073329057258
 64       0.102869228360
 65       0.003855499488
 66      -0.003279567497
 67       0.000249627740
 68       0.000465398938
 69      -0.000387443380
 70       0.000350122400
 71       0.000543142323
 72       0.001323774428
 73      -0.002378818115
 74      -0.000054956320
 75       0.000009841089
 76       0.000009137077
 77      -0.000074798553
 78       0.000051089003
 79       0.000065558458
 80       0.000062141016
 81      -0.000115173375
 82      -0.000616269494
 83      -0.000173646212
 84       0.001171103165
 85       0.000503243239
 86      -0.000390904727
 87       0.000027090777
 88      -0.000092388809
 89       0.000222297748
 90       0.000165851433
 91       0.000022074904
 92       0.000033954025
 93       0.000137888252
 94       0.248047099307
 95       0.347973941249
 96       0.012934677343
 97      -0.010759138909
 98       0.000850001295
 99      -0.001326890018
100       0.001404145385
101       0.001313527114
102       0.003988702259
103      -0.002125541092
104      -0.004193977172
105       0.000036056842
106      -0.000085143342
107      -0.000033058218
108      -0.000044235036
109      -0.000032720722
110       0.000148865182
111      -0.000061810237
112      -0.000162806065
113      -0.000347561870
114       0.001743315456
115      -0.000746348635
116      -0.000498923256
117       0.000633067975
118       0.000093332480
119       0.000202415318
120      -0.000071905439
121      -0.000165326131
122       0.000073140628
123      -0.000040626913
124       0.000062525674
 Sym=     1a
 Ene= -1.65309064469897E+00
 Spin= Alpha
 Occup= 2.000000
  1      -0.045753169261
  2      -0.105596204926
  3       0.149058295609
  4       0.178961936276
  5       0.018322720694
  6      -0.048879486160
  7      -0.048810979812
  8      -0.048923387339
  9      -0.041741613201
 10      -0.041825095471
 11      -0.041649281477
 12      -0.002667023186
 13      -0.002675610410
 14      -0.002656341791
 15      -0.000001832296
 16       0.004628930091
 17       0.004567719714
 18       0.000001911785
 19       0.004508594982
 20      -0.000115316939
 21       0.010457736119
 22       0.010430435240
 23      -0.000064158464
 24       0.010404813296
 25       0.002119745651
 26      -0.001285030438
 27      -0.001237115423
 28      -0.000015954069
 29      -0.001025321481
 30      -0.001609143407
 31       0.001573348537
 32      -0.045444559680
 33      -0.104884855143
 34       0.148173394559
 35       0.177576869765
 36       0.018422660836
 37       0.048116035530
 38       0.048440992867
 39      -0.049100180420
 40       0.041072663325
 41       0.041286254103
 42      -0.041778059964
 43       0.002661653933
 44       0.002713660063
 45      -0.002703526657
 46       0.000074635587
 47      -0.004586780264
 48      -0.004606209777
 49      -0.000044168690
 50       0.004459604948
 51       0.000112992872
 52      -0.010367921478
 53      -0.010405765681
 54      -0.000068426866
 55       0.010181152400
 56       0.002067521065
 57       0.001289525116
 58       0.001283460220
 59       0.000005999349
 60      -0.001034020648
 61       0.001616199126
 62      -0.001553737479
 63      -0.046061413439
 64      -0.106306300241
 65       0.149928138236
 66       0.180389083207
 67       0.018207341014
 68       0.049625568319
 69      -0.048617595897
 70       0.049288836301
 71       0.042424600453
 72      -0.041700106944
 73       0.042202046150
 74       0.002668439117
 75      -0.002627060898
 76       0.002616066554
 77      -0.000002615723
 78       0.004675278949
 79      -0.004525840093
 80       0.000088310898
 81      -0.004544621325
 82      -0.000004779197
 83       0.010687644836
 84      -0.010458001225
 85       0.000137263205
 86      -0.010495651783
 87      -0.002107584260
 88       0.001279253660
 89      -0.001252663725
 90       0.000063740210
 91      -0.001012767384
 92       0.001604568079
 93       0.001625989078
 94      -0.045748991273
 95      -0.105586316369
 96       0.149039182935
 97       0.178964966016
 98       0.018315430514
 99      -0.048865261681
100       0.049190046762
101       0.048528564950
102      -0.041741334660
103       0.041956751838
104       0.041520753206
105      -0.002665652494
106       0.002716925144
107       0.002612556146
108      -0.000078623674
109      -0.004547880975
110       0.004565509450
111      -0.000044917545
112      -0.004586116256
113      -0.000122480190
114      -0.010394333526
115       0.010430799463
116      -0.000070127023
117      -0.010469848132
118      -0.002114118317
119      -0.001252730172
120       0.001200395584
121      -0.000033469741
122      -0.001024118988
123      -0.001635905747
124      -0.001606796724
 Sym=     1a
 Ene= -1.04440346098677E+00
 Spin= Alpha
 Occup= 2.000000
  1      -0.056238817218
  2      -0.131905157412
  3       0.194250552919
  4       0.311925217013
  5       0.096449579045
  6      -0.012210583297
  7       0.076454569114
  8      -0.054482911509
  9      -0.029442889319
 10       0.045216737495
 11      -0.065317132584
 12      -0.003591621996
 13       0.009474630873
 14      -0.009914554689
 15       0.005067725004
 16       0.004954778849
 17      -0.001456304512
 18       0.004546775208
 19      -0.004584183516
 20       0.008564939769
 21       0.016030091273
 22       0.004408523936
 23       0.007635731725
 24      -0.001344453858
 25       0.000300143624
 26      -0.002777884829
 27      -0.001547099617
 28      -0.002068085015
 29       0.000325609180
 30       0.001455562498
 31       0.000313852375
 32       0.060191286527
 33       0.141168962645
 34      -0.207959770449
 35      -0.333827710722
 36      -0.103422172053
 37      -0.014499139013
 38       0.072664030543
 39       0.046017006232
 40      -0.032724457438
 41       0.040866144067
 42       0.059860325107
 43      -0.004115502101
 44       0.008769099319
 45       0.008896724375
 46      -0.004427338857
 47       0.004484953097
 48      -0.001817070658
 49      -0.004431030484
 50       0.004095233298
 51      -0.007650968703
 52       0.015825795436
 53       0.004279232216
 54      -0.007471726307
 55       0.000054221748
 56      -0.000339592731
 57      -0.002573456021
 58      -0.001361825530
 59       0.002033277094
 60      -0.000376089168
 61       0.001243457537
 62       0.000478483099
 63      -0.033172635100
 64      -0.077806370120
 65       0.114497301401
 66       0.184237895285
 67       0.056739995675
 68       0.066608302481
 69       0.097421183155
 70       0.023407978370
 71       0.067741919936
 72       0.070857534825
 73       0.031154271282
 74       0.010829475587
 75       0.013282736327
 76       0.004476510650
 77       0.002220802813
 78       0.006615546742
 79       0.005308625483
 80       0.008320957247
 81       0.002244111374
 82       0.003736426058
 83       0.016266088871
 84       0.005569114624
 85       0.014148153978
 86      -0.000085880980
 87      -0.000239171451
 88       0.002120250595
 89       0.000151806531
 90       0.003828509169
 91       0.000291591040
 92      -0.001829137269
 93       0.001413027414
 94       0.029697343423
 95       0.069649647064
 96      -0.102469766678
 97      -0.165216921946
 98      -0.050867052981
 99       0.062412444144
100       0.099211232847
101      -0.031148286334
102       0.063147352395
103       0.073470956993
104      -0.036666557408
105       0.010163703865
106       0.013670012444
107      -0.005556490290
108      -0.002932977847
109       0.006790886454
110       0.004855942101
111      -0.008253433750
112      -0.002575738861
113      -0.004956671727
114       0.016249662518
115       0.005163894587
116      -0.014001345202
117      -0.000938429045
118       0.000119195380
119       0.002313027508
120      -0.000107606234
121      -0.003767433180
122      -0.000179418555
123      -0.001944533227
124       0.001327568653
 Sym=     1a
 Ene= -1.04102958481734E+00
 Spin= Alpha
 Occup= 2.000000
  1       0.015944329907
  2       0.037398135764
  3      -0.055042952530
  4      -0.088818239295
  5      -0.027731278904
  6      -0.106068176660
  7       0.051376327341
  8       0.050868877598
  9      -0.084172001940
 10       0.048904240609
 11       0.048795723321
 12      -0.015196424466
 13       0.008140229947
 14       0.008172379240
 15      -0.004520919044
 16       0.003883130534
 17      -0.007407359338
 18       0.007995959540
 19       0.003926098658
 20      -0.007754464087
 21       0.005062176612
 22      -0.015642711013
 23       0.013601432112
 24       0.005235912137
 25       0.000169389105
 26       0.000639782406
 27       0.002732825427
 28      -0.003653363892
 29      -0.000101667037
 30       0.000722320816
 31       0.002412754075
 32      -0.042860473479
 33      -0.100530265372
 34       0.148115153044
 35       0.238199623876
 36       0.074741764403
 37      -0.083047725074
 38       0.073470319678
 39       0.000777260061
 40      -0.055522017085
 41       0.076947135353
 42      -0.014316830286
 43      -0.010830458240
 44       0.012463110279
 45      -0.001481659748
 46       0.000217351261
 47       0.005908691371
 48      -0.005393667185
 49      -0.007896734951
 50      -0.000578487707
 51       0.000444422533
 52       0.005448314815
 53      -0.015331667838
 54      -0.013455810579
 55       0.004320697286
 56       0.000495017938
 57      -0.000695218169
 58       0.001473408257
 59       0.003643522156
 60       0.000259172613
 61       0.001872687874
 62       0.001239665675
 63      -0.042646561690
 64      -0.100030409058
 65       0.147088295287
 66       0.238026296346
 67       0.073964615058
 68      -0.083345873848
 69       0.001310094260
 70       0.074538698946
 71      -0.055363459791
 72      -0.013834790788
 73       0.078231397244
 74      -0.010885036147
 75      -0.001211627559
 76       0.012527858197
 77       0.006839576840
 78      -0.000480303700
 79      -0.005371857607
 80      -0.004177745467
 81       0.005954711895
 82       0.011702697078
 83       0.004595200199
 84      -0.015314018134
 85      -0.007059421612
 86       0.005496131394
 87       0.000070187962
 88       0.002099245673
 89      -0.003170692519
 90      -0.001886920699
 91       0.000293759859
 92      -0.000203855669
 93      -0.001865638618
 94       0.069563323204
 95       0.163163797699
 96      -0.240161248978
 97      -0.387417503006
 98      -0.120979824626
 99      -0.060310488816
100      -0.022475784695
101      -0.021180474857
102      -0.026696762104
103      -0.043464224472
104      -0.042161989204
105      -0.006515830989
106      -0.005775638558
107      -0.005597219064
108      -0.002304247523
109      -0.002572110868
110      -0.003355651007
111       0.004211512011
112      -0.002538049175
113      -0.003839095074
114       0.004071577870
115      -0.015002566964
116       0.007230718342
117       0.004206016076
118       0.000665467698
119       0.000739874506
120      -0.001812108719
121       0.001943224898
122      -0.000448487359
123       0.000966650725
124      -0.000707270716
 Sym=     1a
 Ene= -1.03770497377733E+00
 Spin= Alpha
 Occup= 2.000000
  1      -0.056078242748
  2      -0.131539735066
  3       0.193513732544
  4       0.313600701406
  5       0.098898669774
  6      -0.008592748476
  7      -0.052562728340
  8       0.078263818330
  9      -0.027467316888
 10      -0.064573553385
 11       0.046415480154
 12      -0.003448896674
 13      -0.009937314325
 14       0.009564301051
 15      -0.006305159367
 16      -0.004706654582
 17      -0.001627673489
 18      -0.002245694145
 19       0.004594735952
 20      -0.010888327421
 21      -0.001466210881
 22       0.004187015136
 23      -0.003835746959
 24       0.015787176863
 25       0.001195201322
 26       0.002030536341
 27       0.001491685679
 28       0.000968565053
 29       0.000395660970
 30      -0.002252614460
 31       0.001348889473
 32      -0.033554032936
 33      -0.078704153316
 34       0.115874310330
 35       0.187364379242
 36       0.059307100459
 37       0.065377452944
 38       0.022270076233
 39       0.096245893754
 40       0.067287530597
 41       0.030842346230
 42       0.069680059204
 43       0.011119159615
 44       0.004651634376
 45       0.013139947126
 46      -0.008187544991
 47       0.001992972739
 48       0.005137215834
 49       0.002131640464
 50       0.006377576637
 51      -0.014013458698
 52      -0.000604040182
 53       0.005152376120
 54       0.003607349488
 55       0.016085795201
 56       0.001147883039
 57      -0.002232567941
 58      -0.002844297571
 59      -0.001014796712
 60       0.000140295478
 61       0.001613434142
 62      -0.002407626019
 63       0.060152723037
 64       0.141103360188
 65      -0.207512780211
 66      -0.336421471946
 67      -0.105878053254
 68      -0.013135432581
 69       0.045451117925
 70       0.075224965365
 71      -0.032787146252
 72       0.059647603620
 73       0.042173138699
 74      -0.004221012125
 75       0.008913815403
 76       0.008973737833
 77       0.006069188393
 78       0.004188690712
 79      -0.001873117155
 80       0.001610129179
 81       0.004458453271
 82       0.010369741696
 83      -0.000115450797
 84       0.004219007873
 85       0.002610662148
 86       0.015893620838
 87       0.001216487119
 88       0.001851905228
 89      -0.001418073523
 90       0.000697088640
 91      -0.000401242174
 92      -0.002110559815
 93      -0.001497346197
 94       0.028999001006
 95       0.068025001506
 96      -0.100174718423
 97      -0.161658162494
 98      -0.051203006778
 99       0.062724392885
100      -0.030179453988
101       0.101264463329
102       0.063285704875
103      -0.035762634693
104       0.075652042309
105       0.010489333601
106      -0.005614695414
107       0.014053187867
108       0.008546009433
109      -0.002668094495
110       0.004978265422
111      -0.001642671850
112       0.006810563202
113       0.014650959447
114      -0.001244986061
115       0.005459498209
116      -0.002798336263
117       0.016202100039
118       0.001018556078
119      -0.002509964313
120       0.002944372279
121      -0.000753089049
122      -0.000199439942
123       0.001746806337
124       0.002379696839
 Sym=     1a
 Ene= -6.85900786975340E-01
 Spin= Alpha
 Occup= 2.000000
  1       0.022506187111
  2       0.053710368872
  3      -0.093435921000
  4      -0.130000634942
  5      -0.105888616771
  6      -0.114130218563
  7      -0.115697457893
  8      -0.112565849209
  9      -0.100742329401
 10      -0.102341534560
 11      -0.099150476173