[Molden Format]
[Title]
 Molden file created by orca_2mkl for BaseName=N4

[Atoms] AU
N    1   7          0.9826575896         1.0015548510         0.9637603283 
N    2   7         -0.9826575896        -0.9826575896         0.9826575896 
N    3   7         -0.9826575896         0.9826575896        -0.9826575896 
N    4   7          0.9826575896        -0.9826575896        -0.9826575896 
[GTO]
  1 0
s   8 1.0 
    90726.8892100000         0.2644615843
    13590.5288010000         0.4949373694
     3092.9883781000         0.8551699161
      875.9987636200         1.3898736510
      285.7446998200         2.1216984479
      103.1191341700         2.9797034650
       40.1285567770         3.6227997909
       16.5280957040         3.4518402365
s   2 1.0 
       69.3909609830         1.6219974198
       20.4282005960         6.3380762249
s   1 1.0 
        7.1292587972         3.1095201639
s   1 1.0 
        3.1324304893         1.6781128930
s   1 1.0 
        0.9875577872         0.7060443478
s   1 1.0 
        0.3876572131         0.3501434400
s   1 1.0 
        0.1490988307         0.1710077411
p   5 1.0 
      150.0574267000        -1.8341596231
       35.4915994830        -2.4061666955
       11.2478642230        -2.6529700970
        4.0900305195        -2.4826646205
        1.6220573146        -1.8181284959
p   1 1.0 
        0.6644226153         0.8550580417
p   1 1.0 
        0.2709977007         0.2787064987
p   1 1.0 
        0.1068874998         0.0871161625
d   1 1.0 
        2.8370000000        17.6796605055
d   1 1.0 
        0.9680000000         2.6930967689
d   1 1.0 
        0.3350000000         0.4205314648
f   1 1.0 
        2.0270000000        27.9525230183
f   1 1.0 
        0.6850000000         2.4339063574
g   1 1.0 
        1.4270000000        17.5039221697

  2 0
s   8 1.0 
    90726.8892100000         0.2644615843
    13590.5288010000         0.4949373694
     3092.9883781000         0.8551699161
      875.9987636200         1.3898736510
      285.7446998200         2.1216984479
      103.1191341700         2.9797034650
       40.1285567770         3.6227997909
       16.5280957040         3.4518402365
s   2 1.0 
       69.3909609830         1.6219974198
       20.4282005960         6.3380762249
s   1 1.0 
        7.1292587972         3.1095201639
s   1 1.0 
        3.1324304893         1.6781128930
s   1 1.0 
        0.9875577872         0.7060443478
s   1 1.0 
        0.3876572131         0.3501434400
s   1 1.0 
        0.1490988307         0.1710077411
p   5 1.0 
      150.0574267000        -1.8341596231
       35.4915994830        -2.4061666955
       11.2478642230        -2.6529700970
        4.0900305195        -2.4826646205
        1.6220573146        -1.8181284959
p   1 1.0 
        0.6644226153         0.8550580417
p   1 1.0 
        0.2709977007         0.2787064987
p   1 1.0 
        0.1068874998         0.0871161625
d   1 1.0 
        2.8370000000        17.6796605055
d   1 1.0 
        0.9680000000         2.6930967689
d   1 1.0 
        0.3350000000         0.4205314648
f   1 1.0 
        2.0270000000        27.9525230183
f   1 1.0 
        0.6850000000         2.4339063574
g   1 1.0 
        1.4270000000        17.5039221697

  3 0
s   8 1.0 
    90726.8892100000         0.2644615843
    13590.5288010000         0.4949373694
     3092.9883781000         0.8551699161
      875.9987636200         1.3898736510
      285.7446998200         2.1216984479
      103.1191341700         2.9797034650
       40.1285567770         3.6227997909
       16.5280957040         3.4518402365
s   2 1.0 
       69.3909609830         1.6219974198
       20.4282005960         6.3380762249
s   1 1.0 
        7.1292587972         3.1095201639
s   1 1.0 
        3.1324304893         1.6781128930
s   1 1.0 
        0.9875577872         0.7060443478
s   1 1.0 
        0.3876572131         0.3501434400
s   1 1.0 
        0.1490988307         0.1710077411
p   5 1.0 
      150.0574267000        -1.8341596231
       35.4915994830        -2.4061666955
       11.2478642230        -2.6529700970
        4.0900305195        -2.4826646205
        1.6220573146        -1.8181284959
p   1 1.0 
        0.6644226153         0.8550580417
p   1 1.0 
        0.2709977007         0.2787064987
p   1 1.0 
        0.1068874998         0.0871161625
d   1 1.0 
        2.8370000000        17.6796605055
d   1 1.0 
        0.9680000000         2.6930967689
d   1 1.0 
        0.3350000000         0.4205314648
f   1 1.0 
        2.0270000000        27.9525230183
f   1 1.0 
        0.6850000000         2.4339063574
g   1 1.0 
        1.4270000000        17.5039221697

  4 0
s   8 1.0 
    90726.8892100000         0.2644615843
    13590.5288010000         0.4949373694
     3092.9883781000         0.8551699161
      875.9987636200         1.3898736510
      285.7446998200         2.1216984479
      103.1191341700         2.9797034650
       40.1285567770         3.6227997909
       16.5280957040         3.4518402365
s   2 1.0 
       69.3909609830         1.6219974198
       20.4282005960         6.3380762249
s   1 1.0 
        7.1292587972         3.1095201639
s   1 1.0 
        3.1324304893         1.6781128930
s   1 1.0 
        0.9875577872         0.7060443478
s   1 1.0 
        0.3876572131         0.3501434400
s   1 1.0 
        0.1490988307         0.1710077411
p   5 1.0 
      150.0574267000        -1.8341596231
       35.4915994830        -2.4061666955
       11.2478642230        -2.6529700970
        4.0900305195        -2.4826646205
        1.6220573146        -1.8181284959
p   1 1.0 
        0.6644226153         0.8550580417
p   1 1.0 
        0.2709977007         0.2787064987
p   1 1.0 
        0.1068874998         0.0871161625
d   1 1.0 
        2.8370000000        17.6796605055
d   1 1.0 
        0.9680000000         2.6930967689
d   1 1.0 
        0.3350000000         0.4205314648
f   1 1.0 
        2.0270000000        27.9525230183
f   1 1.0 
        0.6850000000         2.4339063574
g   1 1.0 
        1.4270000000        17.5039221697

[5D]
[7F]
[9G]
[MO]
 Sym=     1a
 Ene= -1.57488806608967E+01
 Spin= Alpha
 Occup= 2.000000
  1      -0.279231487654
  2       0.000209714209
  3      -0.185826521192
  4      -0.084682414030
  5      -0.005615594820
  6       0.001851297110
  7      -0.000903453143
  8      -0.001081323370
  9      -0.001090251782
 10      -0.001072607752
 11      -0.000938478126
 12      -0.000967139076
 13      -0.000913987639
 14       0.000753380300
 15       0.000725860133
 16       0.000768518904
 17      -0.000005199600
 18      -0.000006825658
 19      -0.000004216724
 20       0.000002459576
 21      -0.000041126533
 22      -0.000043461336
 23       0.000001671844
 24      -0.000045259940
 25      -0.000013485848
 26       0.000038087693
 27       0.000054332277
 28      -0.000009142996
 29       0.000067736246
 30      -0.000005210001
 31      -0.000270763801
 32      -0.000253334760
 33      -0.000005534126
 34      -0.000242242692
 35       0.000006023458
 36      -0.000001397546
 37      -0.000002937565
 38       0.000001675443
 39      -0.000016001234
 40      -0.000007144631
 41       0.000006395582
 42      -0.000062027993
 43       0.000044426544
 44       0.000037800660
 45       0.000006330620
 46      -0.000046413295
 47       0.000040481845
 48      -0.000042231796
 49       0.000009484275
 50      -0.000006679039
 51      -0.000005916509
 52      -0.000001731415
 53       0.000014722250
 54       0.000017852646
 55      -0.000015513541
 56      -0.000004761838
 57       0.000000105216
 58      -0.265004055496
 59       0.000195682108
 60      -0.176348319252
 61      -0.080396439619
 62      -0.005210527512
 63       0.001587604606
 64      -0.001038749168
 65       0.001014835406
 66       0.001016606754
 67      -0.001026055465
 68       0.000883959341
 69       0.000876197171
 70      -0.000876484704
 71      -0.000804528658
 72      -0.000845502423
 73       0.000834912741
 74      -0.000004938785
 75      -0.000006921540
 76       0.000005800309
 77       0.000000150805
 78       0.000039249694
 79       0.000037077994
 80      -0.000000776168
 81      -0.000038053508
 82      -0.000005182228
 83      -0.000046197359
 84      -0.000036311140
 85       0.000003753874
 86       0.000048562477
 87       0.000000365124
 88       0.000275803871
 89       0.000298068110
 90       0.000014524819
 91      -0.000282048980
 92       0.000006977741
 93       0.000003211044
 94       0.000003601808
 95       0.000000408965
 96      -0.000016103333
 97       0.000007066022
 98      -0.000006922350
 99      -0.000066161700
100      -0.000035567101
101      -0.000043365654
102      -0.000008565262
103      -0.000041524996
104      -0.000055113044
105       0.000048590956
106       0.000009355160
107       0.000005927498
108       0.000006441341
109       0.000001997200
110       0.000017840727
111      -0.000015967632
112       0.000017766187
113      -0.000008138684
114      -0.000000547705
115      -0.288441754747
116       0.000219029282
117      -0.191961767564
118      -0.087457284486
119      -0.005881147775
120       0.002028708888
121      -0.000820766763
122       0.001127828635
123      -0.001115388368
124       0.001125484056
125       0.000975682633
126      -0.000985789732
127       0.000980689439
128      -0.000722742692
129       0.000679949967
130      -0.000691741608
131       0.000011021308
132      -0.000012589636
133       0.000012312029
134       0.000000000000
135      -0.000046243457
136       0.000047815247
137       0.000000820229
138       0.000046212367
139      -0.000001687246
140       0.000051995265
141      -0.000067639125
142      -0.000007950285
143      -0.000060161162
144       0.000007102365
145      -0.000245320612
146       0.000222177518
147      -0.000010532785
148       0.000238782818
149      -0.000005465282
150       0.000002217565
151      -0.000003621093
152      -0.000001336644
153      -0.000016219905
154       0.000005480589
155       0.000005193375
156       0.000055662891
157      -0.000033275954
158       0.000027915686
159      -0.000007296481
160      -0.000050451604
161      -0.000043927732
162      -0.000046379362
163       0.000006200778
164      -0.000005549530
165       0.000005213585
166      -0.000001558268
167      -0.000016603145
168       0.000015922481
169       0.000014253113
170      -0.000006313922
171       0.000000038077
172      -0.275105668567
173       0.000205821013
174      -0.183077649146
175      -0.083439593971
176      -0.005499185985
177       0.001775314743
178      -0.000949470650
179      -0.001064156863
180       0.001066028937
181       0.001061957947
182      -0.000923512358
183       0.000915257554
184       0.000928068969
185       0.000768279996
186      -0.000812543975
187      -0.000740424559
188      -0.000001650561
189      -0.000000388024
190       0.000002891327
191      -0.000000908422
192       0.000043869961
193      -0.000041537115
194      -0.000000824475
195       0.000040095776
196       0.000004966388
197      -0.000059743293
198       0.000049198443
199       0.000003997984
200      -0.000042385757
201       0.000021152975
202       0.000242888369
203      -0.000266984799
204       0.000015387895
205       0.000281774008
206      -0.000006506467
207      -0.000003519665
208       0.000004000646
209      -0.000000420264
210      -0.000016140573
211      -0.000005727937
212      -0.000005566742
213       0.000061395784
214       0.000025312462
215      -0.000031200672
216       0.000010741022
217      -0.000045743804
218       0.000057006773
219       0.000052245807
220       0.000006466920
221       0.000005367586
222      -0.000005250503
223       0.000002161266
224      -0.000018783524
225      -0.000014534507
226      -0.000016705773
227      -0.000009099471
228       0.000000161571
 Sym=     1a
 Ene= -1.57479712367011E+01
 Spin= Alpha
 Occup= 2.000000
  1      -0.170018936318
  2       0.000157131500
  3      -0.113269268832
  4      -0.051233678976
  5      -0.004804691581
  6       0.003350984537
  7       0.002006085265
  8      -0.000741328599
  9      -0.000699875820
 10      -0.000726654582
 11      -0.001026222139
 12      -0.000447347753
 13      -0.000897281469
 14      -0.001971194869
 15       0.000272928587
 16      -0.001492459907
 17      -0.000228848691
 18      -0.000092551922
 19      -0.000197148081
 20      -0.000020796441
 21      -0.000138531473
 22      -0.000011867313
 23      -0.000065615536
 24      -0.000038909738
 25       0.000083495803
 26       0.000479670460
 27      -0.000075235067
 28       0.000261940160
 29       0.000043351313
 30       0.000212356331
 31       0.001132102279
 32      -0.000153066616
 33       0.000655764751
 34       0.000118257202
 35      -0.000005758583
 36       0.000012949455
 37       0.000002946781
 38       0.000016832214
 39       0.000001194069
 40      -0.000004447747
 41      -0.000009642527
 42       0.000085858886
 43      -0.000360654368
 44       0.000072682078
 45      -0.000486423098
 46      -0.000045254491
 47       0.000152150152
 48       0.000072204533
 49      -0.000041697529
 50       0.000022391374
 51      -0.000002887126
 52       0.000119437754
 53       0.000005918272
 54      -0.000069002245
 55      -0.000027451822
 56      -0.000017458957
 57      -0.000007293630
 58      -0.082249527819
 59       0.000075466097
 60      -0.054794265348
 61      -0.024790636853
 62      -0.002289564564
 63       0.001549328261
 64       0.000899890034
 65       0.000318043487
 66       0.000362259428
 67      -0.000360533874
 68       0.000018131968
 69       0.000576188327
 70      -0.000521149554
 71      -0.000896513795
 72       0.001265912733
 73      -0.001045798966
 74      -0.000009921535
 75       0.000128601382
 76      -0.000117946667
 77      -0.000029765374
 78      -0.000016438578
 79       0.000108352785
 80       0.000063686250
 81       0.000004507912
 82       0.000115192943
 83       0.000131792409
 84      -0.000410075079
 85      -0.000250356844
 86      -0.000077432315
 87       0.000291309015
 88       0.000300991170
 89      -0.000956301362
 90      -0.000628043450
 91      -0.000174503350
 92      -0.000001665130
 93      -0.000002800162
 94      -0.000014453129
 95      -0.000018628689
 96       0.000000257345
 97      -0.000005173641
 98      -0.000009495421
 99       0.000054235462
100      -0.000056185171
101       0.000380257429
102       0.000476939676
103      -0.000016496968
104      -0.000000136637
105       0.000211454001
106      -0.000043166129
107       0.000004811439
108      -0.000023211812
109      -0.000118752198
110       0.000018772090
111      -0.000028264133
112      -0.000062973210
113      -0.000036787515
114       0.000005724697
115       0.464825028159
116      -0.000435342701
117       0.309688894163
118       0.140027030326
119       0.013286521351
120      -0.009285027530
121      -0.005686307090
122      -0.001999016044
123       0.001967076145
124      -0.001983873829
125      -0.002228448625
126       0.002115313652
127      -0.002099845735
128      -0.003313679047
129       0.002936190002
130      -0.002818259982
131      -0.000502717519
132       0.000480895160
133      -0.000471888053
134      -0.000011932228
135       0.000177803904
136      -0.000156851928
137       0.000010917631
138      -0.000184151592
139       0.000047248761
140      -0.000416067386
141       0.000330562565
142      -0.000039378701
143       0.000447897893
144       0.000111626519
145      -0.001073088798
146       0.000866646163
147      -0.000104304067
148       0.001144077960
149      -0.000020938624
150       0.000010120680
151      -0.000009142058
152       0.000002203738
153      -0.000005172174
154       0.000016643740
155       0.000018323398
156       0.000181595461
157      -0.000090946496
158       0.000028420917
159      -0.000070907454
160       0.000100331692
161      -0.000177139456
162      -0.000207411746
163       0.000032131597
164      -0.000013849413
165       0.000010759957
166      -0.000016974178
167      -0.000054697015
168       0.000044685756
169       0.000032071871
170      -0.000052884577
171      -0.000000208981
172      -0.235553901613
173       0.000218808211
174      -0.156932278595
175      -0.070976334450
176      -0.006640227460
177       0.004533386192
178       0.002703064370
179      -0.001013348503
180       0.001010626212
181       0.000971631840
182      -0.001261269060
183       0.001192118560
184       0.000752950027
185      -0.002176456669
186       0.001909602431
187       0.000215553180
188      -0.000283238972
189       0.000264723378
190       0.000155504690
191       0.000062918757
192       0.000058258134
193      -0.000042522936
194      -0.000007513746
195       0.000155851113
196      -0.000246059008
197      -0.000077401016
198       0.000008618320
199       0.000030486061
200      -0.000500325771
201      -0.000613689013
202      -0.000215714624
203       0.000060157686
204       0.000077471210
205      -0.001198560978
206       0.000012469678
207      -0.000006494553
208       0.000007990259
209      -0.000002313832
210       0.000002163347
211       0.000015175335
212       0.000016899815
213      -0.000033377171
214       0.000219159595
215      -0.000272985963
216       0.000060101801
217      -0.000053091719
218      -0.000325437662
219      -0.000351580826
220       0.000053480184
221       0.000005003060
222      -0.000008389325
223       0.000015021788
224       0.000073856559
225       0.000001626494
226      -0.000009457575
227       0.000106774870
228       0.000000762608
 Sym=     1a
 Ene= -1.57479568100614E+01
 Spin= Alpha
 Occup= 2.000000
  1       0.444543446089
  2      -0.000415689049
  3       0.296177673795
  4       0.133919511955
  5       0.012644133413
  6      -0.008720094630
  7      -0.005301491857
  8       0.001879647605
  9       0.001909280060
 10       0.001877640591
 11       0.001911663705
 12       0.002142679320
 13       0.002033481342
 14       0.002369050702
 15       0.003225219969
 16       0.002882115470
 17       0.000427000400
 18       0.000486666070
 19       0.000452861878
 20      -0.000000001004
 21       0.000140931869
 22       0.000189959994
 23      -0.000026809675
 24       0.000160952946
 25      -0.000002240017
 26      -0.000275540262
 27      -0.000489061043
 28       0.000104759565
 29      -0.000362199004
 30      -0.000013927947
 31      -0.000741371282
 32      -0.001231290261
 33       0.000258242536
 34      -0.000930881319
 35       0.000019825977
 36      -0.000009504698
 37      -0.000013732392
 38       0.000007479085
 39      -0.000005220092
 40      -0.000018406721
 41       0.000011902486
 42      -0.000185659638
 43       0.000034698177
 44       0.000199628023
 45      -0.000189514860
 46       0.000099533648
 47       0.000171220989
 48      -0.000080070079
 49       0.000046634057
 50      -0.000009857637
 51      -0.000018170487
 52       0.000045286896
 53       0.000037895479
 54       0.000023007053
 55      -0.000058816572
 56      -0.000030232568
 57      -0.000003255790
 58      -0.144622231701
 59       0.000134723961
 60      -0.096353183871
 61      -0.043574209201
 62      -0.004054225210
 63       0.002692506526
 64       0.001591668967
 65       0.000609003679
 66       0.000628635526
 67      -0.000591199436
 68       0.000672838039
 69       0.000902612090
 70      -0.000342415324
 71       0.000994145105
 72       0.001894766982
 73       0.000324837919
 74       0.000151478674
 75       0.000206444034
 76      -0.000062395400
 77       0.000061182199
 78      -0.000007258550
 79       0.000043155602
 80       0.000026980257
 81      -0.000120617642
 82      -0.000238827758
 83       0.000140261198
 84      -0.000078148913
 85      -0.000105852445
 86       0.000413533051
 87      -0.000603615485
 88       0.000301279638
 89      -0.000211964554
 90      -0.000266527884
 91       0.000990754137
 92      -0.000009226228
 93       0.000012978901
 94       0.000008098795
 95      -0.000007532840
 96       0.000002129364
 97      -0.000017795370
 98       0.000011297539
 99       0.000004072388
100      -0.000354155502
101      -0.000179177930
102       0.000193399030
103      -0.000039435357
104       0.000357420108
105      -0.000262223371
106       0.000061881327
107       0.000016234542
108       0.000005181020
109      -0.000047384516
110      -0.000065248278
111      -0.000031037503
112      -0.000006380735
113       0.000099560924
114       0.000004201812
115      -0.013743560864
116       0.000011910328
117      -0.009153819835
118      -0.004146983410
119      -0.000387880904
120       0.000315136611
121       0.000185618715
122       0.000069851855
123      -0.000029479613
124       0.000078715458
125       0.000199447290
126       0.000295035224
127       0.000318163394
128       0.000574916450
129       0.001343469702
130       0.001030549763
131       0.000042424284
132       0.000070928766
133       0.000073208279
134      -0.000046885842
135      -0.000085744436
136      -0.000022028376
137      -0.000055037937
138      -0.000049380383
139       0.000185624200
140       0.000367467758
141       0.000104932314
142       0.000219118561
143       0.000224079891
144       0.000466754082
145       0.000848035004
146       0.000252605420
147       0.000551712112
148       0.000525672758
149      -0.000002009373
150      -0.000013382749
151       0.000005010669
152      -0.000014029882
153      -0.000000667216
154       0.000011720103
155       0.000000091017
156      -0.000050167573
157       0.000415082330
158      -0.000043420694
159       0.000407708597
160       0.000003356150
161      -0.000294077494
162      -0.000113602592
163      -0.000058579336
164       0.000021787566
165       0.000001190859
166       0.000100765092
167      -0.000038660761
168      -0.000058355940
169       0.000019072875
170      -0.000066992911
171       0.000004726816
172      -0.297484641969
173       0.000277224155
174      -0.198195850252
175      -0.089627460972
176      -0.008425143878
177       0.005786440108
178       0.003485939565
179      -0.001241003292
180       0.001281422910
181       0.001265624661
182      -0.001077857698
183       0.001551737959
184       0.001435802483
185      -0.000768617458
186       0.002624821385
187       0.002166285473
188      -0.000233029639
189       0.000347124619
190       0.000322171049
191      -0.000014185404
192       0.000066339645
193      -0.000171013057
194       0.000055243511
195       0.000089458033
196       0.000057031735
197      -0.000065377291
198       0.000519436475
199      -0.000216320298
200      -0.000163826538
201       0.000147516882
202      -0.000199451014
203       0.001264244154
204      -0.000545408511
205      -0.000441155041
206       0.000012258463
207       0.000006448011
208      -0.000015592174
209       0.000016000251
210       0.000003108470
211       0.000013893165
212       0.000001172431
213      -0.000140095863
214       0.000030216753
215       0.000327921883
216      -0.000405148374
217      -0.000067200898
218      -0.000107289723
219       0.000077984791
220      -0.000049276040
221      -0.000001108811
222       0.000021300704
223      -0.000099252204
224       0.000012335102
225      -0.000006883975
226       0.000071258170
227      -0.000002246054
228      -0.000005425367
 Sym=     1a
 Ene= -1.57479298741800E+01
 Spin= Alpha
 Occup= 2.000000
  1      -0.051862039526
  2       0.000049926824
  3      -0.034557723406
  4      -0.015612257752
  5      -0.001494788566
  6       0.000993385441
  7       0.000624240614
  8      -0.000238735519
  9      -0.000227735479
 10      -0.000193089774
 11      -0.000469222138
 12      -0.000309138113
 13       0.000107148210
 14      -0.001308214399
 15      -0.000671667711
 16       0.000969243142
 17      -0.000115540927
 18      -0.000075756619
 19       0.000030890719
 20       0.000066016492
 21       0.000000936128
 22       0.000037813723
 23      -0.000018318114
 24      -0.000094575155
 25      -0.000255563010
 26      -0.000045594085
 27      -0.000204991150
 28       0.000071351801
 29       0.000366208283
 30      -0.000653012134
 31      -0.000082766318
 32      -0.000456772460
 33       0.000182479352
 34       0.000882155640
 35      -0.000005642515
 36      -0.000011925599
 37      -0.000015601365
 38       0.000005932473
 39       0.000001201064
 40       0.000010462229
 41      -0.000014834801
 42      -0.000046343256
 43       0.000246807908
 44       0.000374518815
 45      -0.000143108138
 46      -0.000005409144
 47      -0.000281192889
 48       0.000338055976
 49       0.000077000908
 50      -0.000007303954
 51      -0.000013895700
 52       0.000035807129
 53      -0.000063227541
 54       0.000005129096
 55      -0.000032318105
 56       0.000101640674
 57       0.000000199507
 58       0.457470840300
 59      -0.000425719782
 60       0.304787214517
 61       0.137828097053
 62       0.012918493418
 63      -0.008804295496
 64      -0.005285612462
 65      -0.001928977072
 66      -0.001921211302
 67       0.001956004615
 68      -0.002101608249
 69      -0.001941646759
 70       0.002165072589
 71      -0.002962749191
 72      -0.002330512914
 73       0.003154606244
 74      -0.000467298800
 75      -0.000427699381
 76       0.000478941052
 77       0.000016659938
 78      -0.000195107790
 79      -0.000158168497
 80       0.000017327540
 81       0.000147292736
 82      -0.000061364123
 83       0.000503904745
 84       0.000342025645
 85      -0.000069543671
 86      -0.000301353887
 87      -0.000164459388
 88       0.001253553127
 89       0.000879793261
 90      -0.000180393801
 91      -0.000777055107
 92       0.000018820950
 93       0.000016858107
 94       0.000013307457
 95      -0.000005523432
 96      -0.000004979092
 97       0.000011166839
 98      -0.000015065482
 99      -0.000192235823
100      -0.000250607108
101      -0.000119562461
102       0.000141122589
103       0.000106527792
104      -0.000040802349
105       0.000099027818
106       0.000061481625
107       0.000021339997
108       0.000012952803
109      -0.000035672442
110       0.000026649476
111      -0.000056725919
112       0.000029807349
113      -0.000012807196
114       0.000000728816
115      -0.087939131255
116       0.000083289471
117      -0.058592919718
118      -0.026481936739
119      -0.002548050252
120       0.001801625793
121       0.001134622519
122       0.000352105582
123      -0.000379467799
124       0.000397935937
125       0.000076566804
126      -0.000476591326
127       0.000674037563
128      -0.000703265364
129      -0.000885296922
130       0.001644136312
131       0.000015419584
132      -0.000110942373
133       0.000160758877
134      -0.000052249259
135      -0.000018241709
136       0.000108258343
137       0.000045963817
138      -0.000025779870
139       0.000204805843
140       0.000009642160
141      -0.000403169875
142      -0.000181537387
143       0.000180169664
144       0.000520708797
145       0.000048046764
146      -0.000969085770
147      -0.000461314763
148       0.000392684917
149       0.000001858146
150      -0.000009750691
151       0.000017744715
152       0.000013263838
153       0.000001447563
154      -0.000001592287
155       0.000009177800
156      -0.000084849682
157       0.000119425642
158      -0.000435475716
159      -0.000346271601
160      -0.000020316418
161      -0.000118899755
162      -0.000273605013
163      -0.000072621455
164       0.000004695237
165      -0.000025125714
166      -0.000086524934
167      -0.000035687630
168       0.000004993473
169      -0.000061118556
170      -0.000067648789
171      -0.000004291579
172      -0.295836736776
173       0.000277283255
174      -0.197104567427
175      -0.089113471541
176      -0.008450643715
177       0.005868422109
178       0.003599969516
179      -0.001268768854
180       0.001240227822
181       0.001267444998
182      -0.001482676036
183       0.001082216338
184       0.001509349191
185      -0.002416952103
186       0.000830625270
187       0.002517204893
188      -0.000336866079
189       0.000241205751
190       0.000345293605
191      -0.000028974045
192       0.000172555349
193      -0.000082124998
194      -0.000045367230
195       0.000075602851
196       0.000115616819
197      -0.000526049208
198       0.000131856421
199       0.000179024222
200      -0.000102828005
201       0.000297008068
202      -0.001293951968
203       0.000371020754
204       0.000459271501
205      -0.000309279531
206       0.000012048059
207       0.000018720730
208      -0.000010014698
209      -0.000013363604
210       0.000003733460
211       0.000000734670
212       0.000011572883
213      -0.000149163217
214      -0.000379697979
215       0.000060703902
216       0.000346089949
217      -0.000067188435
218       0.000114833597
219      -0.000039579659
220      -0.000065686211
221      -0.000027032483
222       0.000005752640
223       0.000086735348
224       0.000001977741
225       0.000070869068
226       0.000004721713
227      -0.000019738727
228       0.000004352255
 Sym=     1a
 Ene= -1.65183037627105E+00
 Spin= Alpha
 Occup= 2.000000
  1       0.052849135330
  2       0.007525546379
  3       0.063668623587
  4       0.036738051096
  5      -0.124124008195
  6      -0.191363648282
  7      -0.034984825236
  8      -0.035115685794
  9      -0.035073078171
 10      -0.035140691357
 11       0.039504857691
 12       0.039476611316
 13       0.039517156864
 14       0.021338156468
 15       0.021427010587
 16       0.021243656489
 17       0.001191977647
 18       0.001210540313
 19       0.001173654137
 20      -0.000001279646
 21      -0.001285456588
 22      -0.001268705012
 23      -0.000001701332
 24      -0.001252906501
 25       0.000035592146
 26      -0.007371815638
 27      -0.007308882070
 28       0.000016935036
 29      -0.007247973947
 30       0.000110389537
 31      -0.007402811685