[Molden Format]                                                                 
[ATOMS] AU                                                                      
C        1    6        0.0000000000        0.0000000000        0.0000000000     
H        2    1        1.6813033065        0.0000000000        1.1888609692     
H        3    1       -1.6813033065        0.0000000000        1.1888609692     
H        4    1        0.0000000000       -1.6813033065       -1.1888609692     
H        5    1        0.0000000000        1.6813033065       -1.1888609692     
[Molden Format]                                                                 
[GTO]                                                                           
  1 0
f   3 1.00
   60.043438279533717       0.11407461847341316                                 
   22.167505485221010       0.10668188273112433                                 
   4.8023959698887424        15.216852924688135                                 
f   1 1.00
   1.4833907695011570        1.0000000000000000                                 
f   1 1.00
  0.46178952710355969        1.0000000000000000                                 
f   1 1.00
  0.30249228070031442        1.0000000000000000                                 
f   1 1.00
   9.0284122197480249E-002   1.0000000000000000                                 

  2 0
f   3 1.00
   10.178704699742342        5.9884370424923472E-004                            
   2.3952640718028237       -9.8094243397848932E-002                            
   1.0486496863195751       0.94847150361269594                                 
f   1 1.00
  0.72018956988162897        1.0000000000000000                                 
f   1 1.00
  0.33281514997841094        1.0000000000000000                                 
f   1 1.00
  0.12166473257337672        1.0000000000000000                                 

  3 0
f   3 1.00
   10.178704699742342        5.9884370424923472E-004                            
   2.3952640718028237       -9.8094243397848932E-002                            
   1.0486496863195751       0.94847150361269594                                 
f   1 1.00
  0.72018956988162897        1.0000000000000000                                 
f   1 1.00
  0.33281514997841094        1.0000000000000000                                 
f   1 1.00
  0.12166473257337672        1.0000000000000000                                 

  4 0
f   3 1.00
   10.178704699742342        5.9884370424923472E-004                            
   2.3952640718028237       -9.8094243397848932E-002                            
   1.0486496863195751       0.94847150361269594                                 
f   1 1.00
  0.72018956988162897        1.0000000000000000                                 
f   1 1.00
  0.33281514997841094        1.0000000000000000                                 
f   1 1.00
  0.12166473257337672        1.0000000000000000                                 

  5 0
f   3 1.00
   10.178704699742342        5.9884370424923472E-004                            
   2.3952640718028237       -9.8094243397848932E-002                            
   1.0486496863195751       0.94847150361269594                                 
f   1 1.00
  0.72018956988162897        1.0000000000000000                                 
f   1 1.00
  0.33281514997841094        1.0000000000000000                                 
f   1 1.00
  0.12166473257337672        1.0000000000000000                                 

                                                                                
[MO]
 Sym= A
 Ene=  -3.1153762193948307     
 Spin= Alpha
 Occup= 1.0
  1       -0.0000000000
  2        0.0000000000
  3       -0.0000000000
  4        0.0000000000
  5        0.0000000000
  6        0.0002595555
  7       -0.0000000000
  8       -0.0000000000
  9       -0.0002595555
 10       -0.0000000000
 11        0.0000000000
 12       -0.0000000000
 13        0.0000000000
 14       -0.0000000000
 15        0.0000000000
 16       -0.0410745745
 17        0.0000000000
 18        0.0000000000
 19        0.0410745745
 20        0.0000000000
 21       -0.0000000000
 22       -0.0000000000
 23        0.0000000000
 24        0.0000000000
 25        0.0000000000
 26        0.0393059425
 27       -0.0000000000
 28       -0.0000000000
 29       -0.0393059425
 30       -0.0000000000
 31        0.0000000000
 32        0.0000000000
 33       -0.0000000000
 34       -0.0000000000
 35       -0.0000000000
 36        0.2365705213
 37        0.0000000000
 38        0.0000000000
 39       -0.2365705213
 40        0.0000000000
 41        0.0000000000
 42        0.0000000000
 43        0.0000000000
 44       -0.0000000000
 45        0.0000000000
 46       -0.6383357160
 47       -0.0000000000
 48       -0.0000000000
 49        0.6383357160
 50       -0.0000000000
 51       -0.0176413246
 52        0.0000000000
 53        0.0498972010
 54        0.1587719212
 55       -0.0000000000
 56       -0.2308240390
 57       -0.1058479475
 58        0.0000000000
 59        0.0811324361
 60        0.0000000000
 61        0.0272346776
 62       -0.0000000000
 63       -0.0770313009
 64       -0.2451120986
 65        0.0000000000
 66        0.3535742343
 67        0.1634080657
 68       -0.0000000000
 69       -0.1224803316
 70       -0.0000000000
 71        0.0016178289
 72        0.0000000000
 73       -0.0045759110
 74       -0.0145604598
 75       -0.0000000000
 76       -0.0374119514
 77        0.0097069732
 78       -0.0000000000
 79        0.0511396845
 80       -0.0000000000
 81        0.0045433202
 82       -0.0000000000
 83       -0.0128504502
 84       -0.0408898821
 85       -0.0000000000
 86        0.3384297956
 87        0.0272599214
 88        0.0000000000
 89       -0.2998784450
 90       -0.0000000000
 91        0.0176413246
 92        0.0000000000
 93        0.0498972010
 94       -0.1587719212
 95       -0.0000000000
 96       -0.2308240390
 97        0.1058479475
 98        0.0000000000
 99        0.0811324361
100       -0.0000000000
101       -0.0272346776
102       -0.0000000000
103       -0.0770313009
104        0.2451120986
105        0.0000000000
106        0.3535742343
107       -0.1634080657
108       -0.0000000000
109       -0.1224803316
110        0.0000000000
111       -0.0016178289
112        0.0000000000
113       -0.0045759110
114        0.0145604598
115       -0.0000000000
116       -0.0374119514
117       -0.0097069732
118       -0.0000000000
119        0.0511396845
120        0.0000000000
121       -0.0045433202
122        0.0000000000
123       -0.0128504502
124        0.0408898821
125       -0.0000000000
126        0.3384297956
127       -0.0272599214
128        0.0000000000
129       -0.2998784450
130       -0.0000000000
131       -0.0000000000
132        0.0176413246
133       -0.0498972010
134       -0.0000000000
135       -0.1587719212
136       -0.0811324361
137        0.0000000000
138        0.1058479475
139        0.2308240390
140       -0.0000000000
141        0.0000000000
142       -0.0272346776
143        0.0770313009
144        0.0000000000
145        0.2451120986
146        0.1224803316
147       -0.0000000000
148       -0.1634080657
149       -0.3535742343
150        0.0000000000
151       -0.0000000000
152       -0.0016178289
153        0.0045759110
154       -0.0000000000
155        0.0145604598
156       -0.0511396845
157        0.0000000000
158       -0.0097069732
159        0.0374119514
160       -0.0000000000
161        0.0000000000
162       -0.0045433202
163        0.0128504502
164        0.0000000000
165        0.0408898821
166        0.2998784450
167       -0.0000000000
168       -0.0272599214
169       -0.3384297956
170        0.0000000000
171       -0.0000000000
172       -0.0176413246
173       -0.0498972010
174        0.0000000000
175        0.1587719212
176       -0.0811324361
177        0.0000000000
178       -0.1058479475
179        0.2308240390
180       -0.0000000000
181        0.0000000000
182        0.0272346776
183        0.0770313009
184       -0.0000000000
185       -0.2451120986
186        0.1224803316
187        0.0000000000
188        0.1634080657
189       -0.3535742343
190        0.0000000000
191        0.0000000000
192        0.0016178289
193        0.0045759110
194       -0.0000000000
195       -0.0145604598
196       -0.0511396845
197       -0.0000000000
198        0.0097069732
199        0.0374119514
200       -0.0000000000
201       -0.0000000000
202        0.0045433202
203        0.0128504502
204        0.0000000000
205       -0.0408898821
206        0.2998784450
207        0.0000000000
208        0.0272599214
209       -0.3384297956
210        0.0000000000
 Sym= A
 Ene= -0.51279425669879763     
 Spin= Alpha
 Occup= 1.0
  1        0.0000417690
  2       -0.0000911373
  3        0.0002071730
  4       -0.0003759213
  5        0.0008202357
  6       -0.0003107595
  7        0.0002506142
  8       -0.0005468238
  9       -0.0003107595
 10        0.0000000000
 11       -0.0000743269
 12        0.0001621765
 13       -0.0003686591
 14        0.0006689425
 15       -0.0014595888
 16        0.0005529887
 17       -0.0004459616
 18        0.0009730592
 19        0.0005529887
 20       -0.0000000000
 21        0.0035484744
 22       -0.0077425395
 23        0.0176003146
 24       -0.0319362696
 25        0.0696828557
 26       -0.0264004720
 27        0.0212908464
 28       -0.0464552372
 29       -0.0264004720
 30        0.0000000000
 31       -0.0001828327
 32        0.0003989291
 33       -0.0009068442
 34        0.0016454946
 35       -0.0035903618
 36        0.0013602664
 37       -0.0010969964
 38        0.0023935745
 39        0.0013602664
 40       -0.0000000000
 41       -0.0034613991
 42        0.0075525469
 43       -0.0171684240
 44        0.0311525918
 45       -0.0679729220
 46        0.0257526360
 47       -0.0207683945
 48        0.0453152813
 49        0.0257526360
 50        0.0000000000
 51       -0.0067451169
 52       -0.0039868998
 53       -0.0029578095
 54        0.0094166568
 55       -0.0047590930
 56        0.0084661817
 57        0.0108186938
 58        0.0167197923
 59        0.0004072468
 60        0.0287376616
 61        0.0096162453
 62        0.0053074585
 63        0.0057378666
 64       -0.0131744962
 65        0.0103718651
 66       -0.0178074573
 67       -0.0156742397
 68       -0.0262942407
 69        0.0005938576
 70       -0.0411104755
 71        0.0397179414
 72        0.0360884815
 73       -0.0091532432
 74       -0.0293589394
 75       -0.0648112495
 76        0.0235859866
 77       -0.0897948848
 78       -0.0434541949
 79        0.0038737429
 80       -0.1838372157
 81        0.0259308036
 82        0.0273082360
 83       -0.0146622077
 84       -0.0125369652
 85       -0.0707825604
 86        0.0182418136
 87       -0.0652554455
 88       -0.0111421476
 89        0.0257448096
 90       -0.1237377213
 91        0.0037993294
 92       -0.0039868998
 93        0.0047153128
 94       -0.0201570047
 95       -0.0047590930
 96       -0.0684603926
 97        0.0087590165
 98        0.0167197923
 99        0.0543144543
100       -0.0287376616
101       -0.0085201863
102        0.0053074585
103       -0.0150845552
104        0.0566011941
105        0.0103718651
106        0.1627953933
107       -0.0310406353
108       -0.0262942407
109       -0.1175417277
110        0.0411104755
111       -0.0075284941
112        0.0360884815
113        0.0069463217
114       -0.0220391562
115       -0.0648112495
116       -0.1605737972
117        0.0446246385
118       -0.0434541949
119        0.1397348321
120        0.1838372157
121        0.0023912703
122        0.0273082360
123        0.0228234889
124       -0.0819613344
125       -0.0707825604
126        0.0229174295
127        0.0747875237
128       -0.0111421476
129       -0.0913878962
130        0.1237377213
131        0.0018272314
132       -0.0020584652
133        0.0092498776
134        0.0021811345
135        0.0265041999
136        0.0861718547
137       -0.0076628288
138       -0.0203288043
139       -0.1139214876
140       -0.0131707247
141       -0.0024324552
142        0.0078724511
143       -0.0273899270
144       -0.0047535176
145       -0.0822649554
146       -0.1873560033
147        0.0120508833
148        0.0586476020
149        0.2695257842
150        0.0188412948
151       -0.0165396705
152       -0.0114944187
153        0.0164606391
154        0.0297035693
155        0.0524137533
156        0.2200243022
157        0.0199154421
158       -0.0179304970
159       -0.2694062195
160        0.0842542231
161       -0.0125156063
162       -0.0191286916
163        0.0449763123
164        0.0324402740
165        0.1378067456
166       -0.1606095028
167        0.0051065449
168       -0.0804206707
169        0.0256805659
170        0.0567100929
171        0.0018272314
172        0.0084859811
173       -0.0074923744
174        0.0021811345
175       -0.0030694617
176       -0.0314501536
177       -0.0076628288
178       -0.0223884817
179        0.0539272767
180        0.0131707247
181       -0.0024324552
182       -0.0102639804
183        0.0180432383
184       -0.0047535176
185       -0.0124892651
186        0.0704081332
187        0.0120508833
188        0.0432812063
189       -0.1245378481
190       -0.0188412948
191       -0.0165396705
192       -0.0587408543
193       -0.0186675606
194        0.0297035693
195        0.0597335365
196       -0.0764157271
197        0.0199154421
198        0.1164890263
199        0.1324184089
200       -0.0842542231
201       -0.0125156063
202       -0.0426682250
203       -0.0368150311
204        0.0324402740
205        0.0683823764
206        0.0949664162
207        0.0051065449
208        0.0596222985
209        0.0154786772
210       -0.0567100929
 Sym= A
 Ene= -0.51279425669878742     
 Spin= Alpha
 Occup= 1.0
  1        0.0001048218
  2        0.0000368273
  3       -0.0000789266
  4       -0.0009433964
  5       -0.0003314456
  6        0.0001183898
  7        0.0006289309
  8        0.0002209638
  9        0.0001183898
 10        0.0000000000
 11       -0.0001865278
 12       -0.0000655332
 13        0.0001404478
 14        0.0016787501
 15        0.0005897992
 16       -0.0002106717
 17       -0.0011191667
 18       -0.0003931994
 19       -0.0002106717
 20        0.0000000000
 21        0.0089051031
 22        0.0031286506
 23       -0.0067051795
 24       -0.0801459282
 25       -0.0281578557
 26        0.0100577692
 27        0.0534306188
 28        0.0187719038
 29        0.0100577692
 30        0.0000000000
 31       -0.0004588294
 32       -0.0001612016
 33        0.0003454798
 34        0.0041294645
 35        0.0014508144
 36       -0.0005182197
 37       -0.0027529763
 38       -0.0009672096
 39       -0.0005182197
 40       -0.0000000000
 41       -0.0086865826
 42       -0.0030518773
 43        0.0065406424
 44        0.0781792432
 45        0.0274668956
 46       -0.0098109636
 47       -0.0521194955
 48       -0.0183112638
 49       -0.0098109636
 50        0.0000000000
 51       -0.0016877574
 52        0.0016110498
 53       -0.0099628510
 54       -0.0191100928
 55        0.0019230821
 56        0.1079538351
 57        0.0241733651
 58       -0.0067562314
 59       -0.0780652822
 60       -0.0116124823
 61       -0.0020793998
 62       -0.0021446689
 63        0.0279079407
 64        0.0677821115
 65       -0.0041911239
 66       -0.2542346613
 67       -0.0615439121
 68        0.0106251305
 69        0.1705108392
 70        0.0166121612
 71        0.0313909256
 72       -0.0145828445
 73       -0.0197810131
 74       -0.0630989505
 75        0.0261893085
 76        0.2571739257
 77       -0.0310738262
 78        0.0175592251
 79       -0.1978308864
 80        0.0742860167
 81        0.0310540271
 82       -0.0110348716
 83       -0.0485908681
 84       -0.1317987695
 85        0.0286022308
 86       -0.0137070691
 87        0.0386366883
 88        0.0045023841
 89        0.1594796734
 90        0.0500006617
 91       -0.0057048677
 92        0.0016110498
 93        0.0092932962
 94       -0.0078434357
 95        0.0019230821
 96       -0.0850978828
 97        0.0249580389
 98       -0.0067562314
 99        0.0572179942
100        0.0116124823
101        0.0048300238
102       -0.0021446689
103       -0.0243471393
104        0.0411997158
105       -0.0041911239
106        0.1989987093
107       -0.0556897871
108        0.0106251305
109       -0.1259572914
110       -0.0166121612
111        0.0493903669
112       -0.0145828445
113        0.0206217824
114       -0.0658875632
115        0.0261893085
116       -0.2049857759
117       -0.0822835374
118        0.0175592251
119        0.1431204287
120       -0.0742860167
121        0.0400218665
122       -0.0110348716
123        0.0454816705
124       -0.1053502164
125        0.0286022308
126       -0.0019733388
127       -0.0147153832
128        0.0045023841
129       -0.1344716729
130       -0.0500006617
131        0.0045855437
132        0.0007099210
133       -0.0037174309
134        0.0054736839
135       -0.0103681515
136       -0.0341883383
137       -0.0192303151
138        0.0082383884
139        0.0453406311
140       -0.0330527006
141       -0.0061043880
142       -0.0029715202
143        0.0109598502
144       -0.0119292292
145        0.0324356175
146        0.0743561934
147        0.0302423933
148       -0.0235210568
149       -0.1072357440
150        0.0472833264
151       -0.0415072662
152        0.0051908192
153       -0.0066770195
154        0.0745428369
155       -0.0212642599
156       -0.0872488388
157        0.0499789618
158        0.0056918023
159        0.1072798972
160        0.2114408793
161       -0.0314086428
162        0.0080017099
163       -0.0180799608
164        0.0814107566
165       -0.0548833294
166        0.0641413059
167        0.0128151717
168        0.0308781996
169       -0.0099014234
170        0.1423172805
171        0.0045855437
172       -0.0033071893
173        0.0030478761
174        0.0054736839
175        0.0008985055
176        0.0133410504
177       -0.0192303151
178        0.0090230622
179       -0.0224846787
180        0.0330527006
181       -0.0061043880
182        0.0039379033
183       -0.0073990488
184       -0.0119292292
185        0.0058532218
186       -0.0298026456
187        0.0302423933
188       -0.0176669319
189        0.0519997920
190       -0.0472833264
191       -0.0415072662
192        0.0231902605
193        0.0075177888
194        0.0745428369
195       -0.0240528725
196        0.0325383810
197        0.0499789618
198       -0.0455179089
199       -0.0550917474
200       -0.2114408793
201       -0.0314086428
202        0.0169695494
203        0.0149707633
204        0.0814107566
205       -0.0284347763
206       -0.0391333054
207        0.0128151717
208       -0.0224738718
209       -0.0057789845
210       -0.1423172805
 Sym= A
 Ene= -0.51279425669876377     
 Spin= Alpha
 Occup= 1.0
  1       -0.0000009670
  2        0.0000554161
  3        0.0003931681
  4        0.0000087029
  5       -0.0004987448
  6       -0.0005897522
  7       -0.0000058020
  8        0.0003324966
  9       -0.0005897522
 10        0.0000000000
 11        0.0000017207
 12       -0.0000986115
 13       -0.0006996327
 14       -0.0000154867
 15        0.0008875039
 16        0.0010494491
 17        0.0000103244
 18       -0.0005916692
 19        0.0010494491
 20       -0.0000000000
 21       -0.0000821506
 22        0.0047078560
 23        0.0334014669
 24        0.0007393555
 25       -0.0423707039
 26       -0.0501022003
 27       -0.0004929037
 28        0.0282471359
 29       -0.0501022003
 30        0.0000000000
 31        0.0000042328
 32       -0.0002425691
 33       -0.0017209879
 34       -0.0000380948
 35        0.0021831217
 36        0.0025814818
 37        0.0000253965
 38       -0.0014554145
 39        0.0025814818
 40       -0.0000000000
 41        0.0000801347
 42       -0.0045923308
 43       -0.0325818349
 44       -0.0007212126
 45        0.0413309776
 46        0.0488727524
 47        0.0004808084
 48       -0.0275539851
 49        0.0488727524
 50        0.0000000000
 51       -0.0099714033
 52        0.0024242369
 53        0.0017564945
 54        0.0281864275
 55        0.0028937695
 56       -0.0578182698
 57        0.0017277824
 58       -0.0101664801
 59        0.0525487864
 60       -0.0174739531
 61        0.0171967611
 62       -0.0032272035
 63       -0.0091099935
 64       -0.0667120243
 65       -0.0063066190
 66        0.1396679281
 67        0.0151217410
 68        0.0159882295
 69       -0.1123379474
 70        0.0249972502
 71        0.0444589836
 72       -0.0219436237
 73       -0.0019077618
 74       -0.0063506992
 75        0.0394085207
 76       -0.1321178755
 77       -0.1270262516
 78        0.0264223503
 79        0.1378411609
 80        0.1117823336
 81        0.0220085471
 82       -0.0166047899
 83        0.0081780596
 84        0.0669698383
 85        0.0430393800
 86        0.0391096486
 87       -0.1329954797
 88        0.0067749898
 89       -0.0636438275
 90        0.0752387986
 91        0.0100396011
 92        0.0024242369
 93        0.0015788543
 94       -0.0279377781
 95        0.0028937695
 96       -0.0560373452
 97       -0.0021810253
 98       -0.0101664801
 99        0.0513007824
100        0.0174739531
101       -0.0172221359
102       -0.0032272035
103       -0.0086279343
104        0.0657066543
105       -0.0063066190
106        0.1354867974
107       -0.0140402465
108        0.0159882295
109       -0.1096029944
110       -0.0249972502
111       -0.0452042004
112       -0.0219436237
113       -0.0022804823
114        0.0075406148
115        0.0394085207
116       -0.1278543983
117        0.1280719865
118        0.0264223503
119        0.1346958453
120       -0.1117823336
121       -0.0226642305
122       -0.0166047899
123        0.0073102295
124       -0.0647821113
125        0.0430393800
126        0.0390014036
127        0.1327748029
128        0.0067749898
129       -0.0609320921
130       -0.0752387986
131       -0.0000423022
132       -0.0119596297
133       -0.0034223940
134       -0.0000504954
135        0.0209373492
136        0.0161647166
137        0.0001774019
138        0.0149415400
139       -0.0058975346
140        0.0003049150
141        0.0000563137
142        0.0179365340
143        0.0049438683
144        0.0001100485
145       -0.0374016579
146       -0.0326036489
147       -0.0002789896
148       -0.0164079440
149        0.0177720440
150       -0.0004361942
151        0.0003829094
152        0.0661848928
153       -0.0127739839
154       -0.0006876664
155       -0.0410412717
156        0.0461432308
157       -0.0004610617
158       -0.1575134067
159       -0.0078212790
160       -0.0019505668
161        0.0002897484
162        0.0411242157
163       -0.0171224941
164       -0.0007510237
165        0.0031892627
166        0.0154135887
167       -0.0001182215
168       -0.1265619097
169        0.0359538937
170       -0.0013128935
171       -0.0000423022
172        0.0080513747
173        0.0067577428
174       -0.0000504954
175       -0.0351868564
176        0.0876848521
177        0.0001774019
178        0.0110327324
179       -0.1079580804
180       -0.0003049150
181        0.0000563137
182       -0.0164823631
183       -0.0226817962
184        0.0001100485
185        0.0950170207
186       -0.1893372929
187       -0.0002789896
188       -0.0455699315
189        0.2573826814
190        0.0004361942
191        0.0003829094
192       -0.0234782912
193        0.0085857398
194       -0.0006876664
195       -0.0271499578
196        0.2263937755
197       -0.0004610617
198        0.0975848315
199       -0.2521509948
200        0.0019505668
201        0.0002897484
202       -0.0035485620
203        0.0326107833
204       -0.0007510237
205       -0.1285626869
206       -0.1399895083
207       -0.0001182215
208        0.1392083729
209        0.0421571585
210        0.0013128935
 Sym= A
 Ene=  -3.1974345273031446E-002
 Spin= Alpha
 Occup= 1.0
  1        0.0000000000
  2       -0.0000000000
  3        0.0000000000
  4        0.0000000000
  5        0.0000000000
  6        0.0021353577
  7       -0.0000000000
  8       -0.0000000000
  9       -0.0021353577
 10       -0.0000000000
 11        0.0000000000
 12        0.0000000000
 13       -0.0000000000
 14       -0.0000000000
 15       -0.0000000000
 16       -0.0127303853
 17        0.0000000000
 18        0.0000000000
 19        0.0127303853
 20        0.0000000000
 21       -0.0000000000
 22       -0.0000000000
 23        0.0000000000
 24        0.0000000000
 25        0.0000000000
 26        0.1382464228
 27       -0.0000000000
 28       -0.0000000000
 29       -0.1382464228
 30       -0.0000000000
 31       -0.0000000000
 32       -0.0000000000
 33        0.0000000000
 34        0.0000000000
 35        0.0000000000
 36        0.1927949728
 37       -0.0000000000
 38       -0.0000000000
 39       -0.1927949728
 40        0.0000000000
 41        0.0000000000
 42        0.0000000000
 43       -0.0000000000
 44       -0.0000000000
 45       -0.0000000000
 46        0.5833180106
 47        0.0000000000
 48        0.0000000000
 49       -0.5833180106
 50       -0.0000000000
 51       -0.0041564969
 52        0.0000000000
 53        0.0117563485
 54        0.0374084719
 55       -0.0000000000
 56       -0.0270298674
 57       -0.0249389812
 58       -0.0000000000
 59       -0.0082391781
 60       -0.0000000000
 61        0.0061946047
 62       -0.0000000000
 63       -0.0175209879
 64       -0.0557514422
 65        0.0000000000
 66        0.0305253280
 67        0.0371676281
 68        0.0000000000
 69        0.0220376357
 70        0.0000000000
 71        0.0037587082
 72       -0.0000000000
 73       -0.0106312323
 74       -0.0338283741
 75        0.0000000000
 76        0.0543974255
 77        0.0225522494
 78       -0.0000000000
 79       -0.0225037285
 80        0.0000000000
 81       -0.0057186988
 82        0.0000000000
 83        0.0161749229
 84        0.0514682895
 85        0.0000000000
 86       -0.2306758609
 87       -0.0343121930
 88       -0.0000000000
 89        0.1821510922
 90       -0.0000000000
 91        0.0041564969
 92        0.0000000000
 93        0.0117563485
 94       -0.0374084719
 95       -0.0000000000
 96       -0.0270298674
 97        0.0249389812
 98       -0.0000000000
 99       -0.0082391781
100        0.0000000000
101       -0.0061946047
102       -0.0000000000
103       -0.0175209879
104        0.0557514422
105        0.0000000000
106        0.0305253280
107       -0.0371676281
108        0.0000000000
109        0.0220376357
110       -0.0000000000
111       -0.0037587082
112       -0.0000000000
113       -0.0106312323
114        0.0338283741
115        0.0000000000
116        0.0543974255
117       -0.0225522494
118       -0.0000000000
119       -0.0225037285
120       -0.0000000000
121        0.0057186988
122        0.0000000000
123        0.0161749229
124       -0.0514682895
125        0.0000000000
126       -0.2306758609
127        0.0343121930
128       -0.0000000000
129        0.1821510922
130        0.0000000000
131        0.0000000000
132        0.0041564969
133       -0.0117563485
134       -0.0000000000
135       -0.0374084719
136        0.0082391781
137       -0.0000000000
138        0.0249389812
139        0.0270298674
140       -0.0000000000
141       -0.0000000000
142       -0.0061946047
143        0.0175209879
144        0.0000000000
145        0.0557514422
146       -0.0220376357
147        0.0000000000
148       -0.0371676281
149       -0.0305253280
150        0.0000000000
151       -0.0000000000
152       -0.0037587082
153        0.0106312323
154        0.0000000000
155        0.0338283741
156        0.0225037285
157       -0.0000000000
158       -0.0225522494
159       -0.0543974255
160        0.0000000000
161        0.0000000000
162        0.0057186988
163       -0.0161749229
164        0.0000000000
165       -0.0514682895
166       -0.1821510922
167       -0.0000000000
168        0.0343121930
169        0.2306758609
170       -0.0000000000
171        0.0000000000
172       -0.0041564969
173       -0.0117563485
174       -0.0000000000
175        0.0374084719
176        0.0082391781
177       -0.0000000000
178       -0.0249389812
179        0.0270298674
180       -0.0000000000
181       -0.0000000000
182        0.0061946047
183        0.0175209879
184        0.0000000000
185       -0.0557514422
186       -0.0220376357
187        0.0000000000
188        0.0371676281
189       -0.0305253280
190        0.0000000000
191       -0.0000000000
192        0.0037587082
193        0.0106312323
194        0.0000000000
195       -0.0338283741
196        0.0225037285
197       -0.0000000000
198        0.0225522494
199       -0.0543974255
200       -0.0000000000
201        0.0000000000
202       -0.0057186988
203       -0.0161749229
204        0.0000000000
205        0.0514682895
206       -0.1821510922
207       -0.0000000000
208       -0.0343121930
209        0.2306758609
210        0.0000000000
 Sym= A
 Ene=  0.11802695965672609     
 Spin= Alpha
 Occup= 0.0
  1        0.0000073111
  2        0.0000326530
  3        0.0002910879
  4       -0.0000658001
  5       -0.0002938767
  6       -0.0004366318
  7        0.0000438667
  8        0.0001959178
  9       -0.0004366318
 10       -0.0000000000
 11       -0.0000353404
 12       -0.0001578372
 13       -0.0014070545
 14        0.0003180633
 15        0.0014205351
 16        0.0021105818
 17       -0.0002120422
 18       -0.0009470234
 19        0.0021105818
 20        0.0000000000
 21        0.0002033406
 22        0.0009081603
 23        0.0080958780
 24       -0.0018300652
 25       -0.0081734426
 26       -0.0121438170
 27        0.0012200435
 28        0.0054489617
 29       -0.0121438170
 30       -0.0000000000
 31        0.0020805261
 32        0.0092920517
 33        0.0828348452
 34       -0.0187247351