 --invoking executable--
/usr/local/cfour/bin/xjoda


   *************************************************************************
         <<<     CCCCCC     CCCCCC   |||     CCCCCC     CCCCCC   >>>
       <<<      CCC        CCC       |||    CCC        CCC         >>>
      <<<      CCC        CCC        |||   CCC        CCC            >>>
    <<<        CCC        CCC        |||   CCC        CCC              >>>
      <<<      CCC        CCC        |||   CCC        CCC            >>>
       <<<      CCC        CCC       |||    CCC        CCC         >>>
         <<<     CCCCCC     CCCCCC   |||     CCCCCC     CCCCCC   >>>
   *************************************************************************

     ****************************************************************
     * CFOUR Coupled-Cluster techniques for Computational Chemistry *
     ****************************************************************


   Department of Chemistry                Institut fuer Physikalische Chemie
   University of Texas at Austin          Universitaet Mainz
   Austin, TX  78712, USA                 D-55099 Mainz, Germany

                       Version 2.00beta

                     kbob-G41MT-S2                                     
                     Вс. мая 10 13:40:29 KRAT 2015                
                     integer*8 version is running

********************************************************************************
*                          Input from ZMAT file                                *
********************************************************************************
CFOUR input file for CASINO with f-orbitals                                     
C       0.000000      0.000000      0.000000                                    
H       0.629118      0.629118      0.629118                                    
H      -0.629118     -0.629118      0.629118                                    
H       0.629118     -0.629118     -0.629118                                    
H      -0.629118      0.629118     -0.629118                                    
                                                                                
*CFOUR(CALC=HF                                                                  
SCF_CONV=10                                                                     
SYMMETRY=OFF                                                                    
BASIS=svp                                                                       
COORD=CARTESIAN)                                                                
                                                                                
********************************************************************************
    -------------------------------------------------------------------
                    CFOUR Control Parameters 
    -------------------------------------------------------------------
        External           Internal           Value            Units
          Name               Name
    -------------------------------------------------------------------
       ABCDTYPE             IABCDT         STANDARD     [  0]   ***   
       ANHARMONIC           IANHAR         OFF          [  0]   ***   
       ANH_ALGORIT          IANALG         STANDARD     [  0]   ***   
       ANH_DERIVAT          IANDER         SECOND       [  1]   ***   
       ANH_STEPSIZ          ICUBST             50000          x 10-6  
       ANH_SYMMETR          IANHSM         ABELIAN      [  0]   ***   
       AO_LADDERS           IAOLAD         SINGLEPASS   [  1]   ***   
       BASIS                IBASIS         svp          [ 28]   ***   
       BREIT                IBREIT         OFF          [  0]   ***   
       BRUCK_CONV           IBRTOL          10D-  4             ***   
       BRUECKNER            IBRKNR             OFF      [  0]   ***   
       BUFFERSIZE           IBUFFS            600               ***   
       CACHE_RECS           ICHREC             10               ***   
       CALCLEVEL            ICLLVL           SCF        [  0]   ***   
       CCORBOPT             ICCORB             OFF      [  0] x 0.01  
       CC_CONV              ICCCNV          10D-  7             ***   
       CC_EXPORDER          ICCEOR              0               ***   
       CC_EXTRAPOL          ICCEXT             DIIS     [  1]   ***   
       CC_MAXCYC            ICCCYC              0              cycles 
       CC_PROGRAM           ICCPRO         VCC          [  0]   ***   
       CHARGE               ICHRGE              0               ***   
       CHOLESKY             ICHOLE         OFF          [  0]   ***   
       CIS_CONV             ICISTL              5               ***   
       COMM_SIZE            IPSIZE            ***               ***   
       CONSTANT             ICONST         OLD          [  1]   ***   
       CONTINUUM            ICONTU         NONE         [  0]   ***   
       CONTRACTION          ICNTYP          GENERAL     [  1]   ***   
       COORDINATES          ICOORD         CARTESIAN    [  1]   ***   
       CPHF_CONVER          ICPHFT          10D- 16             ***   
       CPHF_MAXCYC          ICPHFC             64              cycles 
       CUBIC                ICUBIC         OFF          [  0]   ***   
       CURVILINEAR          ICURVY            OFF       [  0]   ***   
       DBOC                 IDBOC          OFF          [  0]   ***   
       DCT                  IDCT           OFF          [  0]   ***   
       DERIV_LEV            IDRLVL            ZERO      [  0]   ***   
       DIAG_MRCC            IEOMST          10D-  0             ***   
       DIFF_TYPE            IDIFTY         RELAXED      [  0]   ***   
       DIRECT               IDIRCT         OFF          [  0]   ***   
       DROPMO               IDRPMO      NONE         
       ECP                  IECP           OFF          [  0]   ***   
       EIGENVECTOR          IVEC                1               ***   
       EL_ANHARM            IELANH         OFF          [  0]   ***   
       EOMFOLLOW            IEOMSR         ENERGY       [  0]   ***   
       EOM_MRCC             IMRCCE         NEW          [  1]   ***   
       EOM_NONIT            EOMNON         OFF          [  0]   ***   
       EOM_NSING            IEOMSI          10D-  0             ***   
       EOM_NSTATES          IMRCCD         DAVIDSON     [  0]   ***   
       EOM_NTRIP            IEOMTR          10D-  0             ***   
       EOM_ORDER            IEXORD         ENERGY       [  0]   ***   
       ESTATE_CONV          IEXTOL          10D-  5             ***   
       ESTATE_DIAG          IEXDIG         ITERATIVE    [  0]   ***   
       ESTATE_LOCK          IESLOC         ON           [  1]   ***   
       ESTATE_MAXC          IEXMXC             20               ***   
       ESTATE_PROP          IEXPRP         OFF          [  0]   ***   
       EVAL_HESS            IRECAL              0            # of cyc.
       EXCITATION           IEXCIT              0               ***   
       EXCITE               IEXCIT         NONE         [  0]   ***   
       FCGRADNEW            IFCGNW         OFF          [  0]   ***   
       FC_FIELD             IFINFC              0             x 10-6  
       FD_CALTYPE           IFDCAL         GRADONLY     [  0]   ***   
       FD_PROJECT           IFDPRJ         OFF          [  1]   ***   
       FD_STEPSIZE          IDISFD              0            10-4 bohr
       FD_USEGROUP          IFDGRP         FULL         [  0]   ***   
       FILE_RECSIZ          IFLREC              4096           words  
       FINITE_PERT          IFIPER              0             x 10-6  
       FIXGEOM              IFIXGM         OFF          [  0]   ***   
       FOCK                 IFOCK          AO           [  1]   ***   
       FREQ_ALGORI          IVIALG         STANDARD     [  0]   ***   
       FROZEN_CORE          IFROCO         OFF          [  0]   ***   
       FROZEN_VIRT          IFROVI         OFF          [  0]   ***   
       GAMMA_ABCD           IGABCD         STORE        [  0]   ***   
       GAMMA_ABCI           IGABCI         STORE        [  0]   ***   
       GENBAS_1             IGNBS1              0               ***   
       GENBAS_2             IGNBS2              0               ***   
       GENBAS_3             IGNBS3              0               ***   
       GENBAS_4             IGNBS4              0               ***   
       GEO_CONV             ICONTL              5              H/bohr 
       GEO_MAXCYC           IOPTCY             50               ***   
       GEO_MAXSTEP          IMXSTP            300            millibohr
       GEO_METHOD           INR            SINGLE_POINT [  5]   ***   
       GIAO                 IGIAO          OFF          [  1]   ***   
       GIMIC                IGIMIC         OFF          [  0]   ***   
       GRID                 IGRID          OFF          [  0]   ***   
       GRID_ALGO            IGALGO         SERIAL       [  0]   ***   
       GUESS                IGUESS            MOREAD    [  0]   ***   
       HBAR                 IHBAR              OFF      [  0]   ***   
       HESS_TYPE            IHESTP         SCF          [  0]   ***   
       HF2_FILE             IHF2Fl         USE          [  1]   ***   
       HFSTABILITY          ISTABL         OFF          [  0]   ***   
       INCORE               INCORE             OFF      [  0]   ***   
       INPUT_MRCC           IMRCC          ON           [  1]   ***   
       INTEGRALS            INTTYP             VMOL     [  1]   ***   
       JODA_PRINT           IJPRNT              0               ***   
       LINDEP_TOL           ILINDP              8               ***   
       LINEQ_CONV           IZTACN          10D-  7           cycles  
       LINEQ_EXPOR          ILMAXD              5               ***   
       LINEQ_MAXCY          ILMAXC             50               ***   
       LINEQ_TYPE           ILTYPE         DIIS         [  1]   ***   
       LOCK_ORBOCC          ILOCOC             OFF      [  0]   ***   
       MEMORY_SIZE          IMEMSZ         100000000           words  
       MEM_UNIT             IMEMU          INTEGERWORDS [  0]   ***   
       MRCC                 IMRCCC         OFF          [  0]   ***   
       MULTIPLICTY          IMULTP              1               ***   
       NEGEVAL              IDIE             ABORT      [  0]   ***   
       NEWNORM              INEWNO         OFF          [  0]   ***   
       NON-HF               INONHF             OFF      [  0]   ***   
       NTOP_TAMP            ITOPT2             15               ***   
       NUC_MODEL            INUCMO         POINT        [  0]   ***   
       OCCUPATION           IOCCU   ESTIMATED BY SCF 
       OPEN-SHELL           IOPEN          SPIN-ORBITAL [  0]   ***   
       ORBITALS             IORBTP           STANDARD   [  0]   ***   
       PARALLEL             IPARAL         ON           [  1]   ***   
       PARA_INT             IPINTS         ON           [  1]   ***   
       PARA_PRINT           IPPRIN              0               ***   
       PERT_ORB             IPTORB         STANDARD     [  0]   ***   
       POINTS               IGRDFD              0               ***   
       PRINT                IPRNT               0               ***   
       PROPS                IPROPS             OFF      [  0]   ***   
       PROP_INTEGR          IINTYP         INTERNAL     [  0]   ***   
       PSI                  IPSI           OFF          [  0]   ***   
       QUARTIC              IQUART         OFF          [  0]   ***   
       RAMAN_INT            IRAMIN         OFF          [  0]   ***   
       RAMAN_ORB            IRAMRE         UNRELAXED    [  0]   ***   
       RDO                  IRDOFM             OFF      [  0]   ***   
       REFERENCE            IREFNC             RHF      [  0]   ***   
       RELATIVIST           IRELAT         OFF          [  0]   ***   
       RELAX_DENS           IRDENS             OFF      [  0]   ***   
       RESET_FLAGS          IRESET             OFF      [  0]   ***   
       RESTART_CC           ICCRES         OFF          [  0]   ***   
       ROT_EVEC             ROTVEC              0               ***   
       SAVE_INTS            ISVINT             OFF      [  0]   ***   
       SCALE_ON             ISTCRT              0               ***   
       SCF_CONV             ISCFCV          10D- 10             ***   
       SCF_DAMPING          IDAMP               0             x 10-3  
       SCF_EXPORDE          IRPPOR              6               ***   
       SCF_EXPSTAR          IRPPLS              8               ***   
       SCF_EXTRAPO          IRPP                ON      [  1]   ***   
       SCF_MAXCYC           ISCFCY            150              cycles 
       SCF_NOSTOP           ISCFST         OFF          [  0]   ***   
       SCF_PRINT            ISCFPR              0               ***   
       SD_FIELD             IFINSD              0             x 10-6  
       SEQUENCE             ISEQUE         OFF          [  0]   ***   
       SOPERT               IPERSO         OFF          [  0]   ***   
       SPHERICAL            IDFGHI             ON       [  1]   ***   
       SPINORBIT            ISOCAL         OFF          [  0]   ***   
       SPINROTATIO          ISRCON         OFF          [  0]   ***   
       SPIN_FLIP            ISPFLP         OFF          [  0]   ***   
       SPIN_ORBIT           ISPORB         OFF          [  0]   ***   
       SPIN_SCAL            ISCSMP         OFF          [  0]   ***   
       SUBGROUP             ISUBGP         DEFAULT      [  0]   ***   
       SUBGRPAXIS           ISBXYZ         X            [  0]   ***   
       SYMMETRY             ISYM            OFF         [  1]   ***   
       SYM_CHECK            ISYMCK         OVERRIDE     [  1]   ***   
       T3_EXTRAPOL          IT3EXT         OFF          [  0]   ***   
       TAMP_SUM             IEVERY              0               ***   
       TESTSUITE            ITESTS         OFF          [  0]   ***   
       THERMOCH             ITHERM         OFF          [  0]   ***   
       TOL_CHOLESK          ITOLCH          10D-  4             ***   
       TRANGRAD             IRESRM         OFF          [  0]   ***   
       TRANS_INV            ITRAIN         USE          [  0]   ***   
       TREAT_PERT           ITREAT         SIMULTANEOUS [  0]   ***   
       UIJ_THRESHO          IUIJTH              1               ***   
       UNITS                IUNITS         ANGSTROM     [  0]   ***   
       UNOS                 IUNOS          OFF          [  0]   ***   
       UPDATE_HESS          IHUPDT         ON           [  1]   ***   
       VIBPHASE             ISETPH         STANDARD     [  0]   ***   
       VIBRATION            IVIB              NO        [  0]   ***   
       VIB_ALGORIT          IGEALG         STANDARD     [  0]   ***   
       VNATORB              IVNORB         OFF          [  0]   ***   
       VTRAN                IVTRAN         FULL/PARTIAL [  0]   ***   
       XFIELD               IXEFLD              0             x 10-6  
       XFORM_TOL            IXFTOL          10D- 11             ***   
       YFIELD               IYEFLD              0             x 10-6  
       ZFIELD               IZEFLD              0             x 10-6  
    -------------------------------------------------------------------
  @GETXYZ-I,     5 atoms read from ZMAT.
  1  C          6    12.00000
  2  H          1     1.00783
  3  H          1     1.00783
  4  H          1     1.00783
  5  H          1     1.00783
  1  C          6    12.00000
  2  H          1     1.00783
  3  H          1     1.00783
  4  H          1     1.00783
  5  H          1     1.00783
 factor:   60.199719999999999     
   Rotational constants (in cm-1): 
          5.2827152700             5.2827152700             5.2827152700
   Rotational constants (in MHz): 
     158371.8417567255        158371.8417567255        158371.8417567255
********************************************************************************
   The full molecular point group is T d .
   The largest Abelian subgroup of the full molecular point group is C2v .
   The computational point group is C1  .
********************************************************************************
 ----------------------------------------------------------------
 Z-matrix   Atomic            Coordinates (in bohr)
  Symbol    Number           X              Y              Z
 ----------------------------------------------------------------
     C         6         0.00000000     0.00000000     0.00000000
     H         1         1.68130331     0.00000000     1.18886097
     H         1        -1.68130331     0.00000000     1.18886097
     H         1         0.00000000    -1.68130331    -1.18886097
     H         1         0.00000000     1.68130331    -1.18886097
 ----------------------------------------------------------------
   Interatomic distance matrix (Angstroms) 

                 C             H             H             H             H    
                [ 1]        [ 2]        [ 3]        [ 4]        [ 5]
  C    [ 1]     0.00000
  H    [ 2]     1.08966     0.00000
  H    [ 3]     1.08966     1.77941     0.00000
  H    [ 4]     1.08966     1.77941     1.77941     0.00000
  H    [ 5]     1.08966     1.77941     1.77941     1.77941     0.00000
   Rotational constants (in cm-1): 
          5.2827152700             5.2827152700             5.2827152700
   Rotational constants (in MHz): 
     158371.8417567255        158371.8417567255        158371.8417567255
  There are  147 basis functions.
 @GEOPT-W, Archive file not created for single-point calculation.
  @CHECKOUT-I, Total execution time (CPU/WALL):        0.58/       0.67 seconds.
--executable xjoda finished with status     0 in        0.86 seconds (walltime).
 --invoking executable--
/usr/local/cfour/bin/xvmol
 Serial version of molecule started
********************************************************************************
                    Input from MOL file
********************************************************************************
INTGRL        1    0    1    0    0    0    0    0    0                         
         *** CFOUR Program System (Release V0.1) ***                            
CFOUR input file for CASINO with f-orbitals                                     
    5    0            0.10E-08              0    0                              
   9999.00      3.00                                                            
          6.00000000    1    4    0    0    0    5                              
C #1   0.000000000000000   0.000000000000000   0.000000000000000                
    3    1                                                                      
   60.043438279533717       0.11407461847341316                                 
   22.167505485221010       0.10668188273112433                                 
   4.8023959698887424        15.216852924688135                                 
    1    1                                                                      
   1.4833907695011570        1.0000000000000000                                 
    1    1                                                                      
  0.46178952710355969        1.0000000000000000                                 
    1    1                                                                      
  0.30249228070031442        1.0000000000000000                                 
    1    1                                                                      
   9.0284122197480249E-002   1.0000000000000000                                 
          1.00000000    1    4    0    0    0    4                              
H #2   1.681303306460232   0.000000000000000   1.188860969229394                
    3    1                                                                      
   10.178704699742342        5.9884370424923472E-004                            
   2.3952640718028237       -9.8094243397848932E-002                            
   1.0486496863195751       0.94847150361269594                                 
    1    1                                                                      
  0.72018956988162897        1.0000000000000000                                 
    1    1                                                                      
  0.33281514997841094        1.0000000000000000                                 
    1    1                                                                      
  0.12166473257337672        1.0000000000000000                                 
          1.00000000    1    4    0    0    0    4                              
H #3  -1.681303306460232   0.000000000000000   1.188860969229394                
    3    1                                                                      
   10.178704699742342        5.9884370424923472E-004                            
   2.3952640718028237       -9.8094243397848932E-002                            
   1.0486496863195751       0.94847150361269594                                 
    1    1                                                                      
  0.72018956988162897        1.0000000000000000                                 
    1    1                                                                      
  0.33281514997841094        1.0000000000000000                                 
    1    1                                                                      
  0.12166473257337672        1.0000000000000000                                 
          1.00000000    1    4    0    0    0    4                              
H #4   0.000000000000000  -1.681303306460232  -1.188860969229394                
    3    1                                                                      
   10.178704699742342        5.9884370424923472E-004                            
   2.3952640718028237       -9.8094243397848932E-002                            
   1.0486496863195751       0.94847150361269594                                 
    1    1                                                                      
  0.72018956988162897        1.0000000000000000                                 
    1    1                                                                      
  0.33281514997841094        1.0000000000000000                                 
    1    1                                                                      
  0.12166473257337672        1.0000000000000000                                 
          1.00000000    1    4    0    0    0    4                              
H #5   0.000000000000000   1.681303306460232  -1.188860969229394                
    3    1                                                                      
   10.178704699742342        5.9884370424923472E-004                            
   2.3952640718028237       -9.8094243397848932E-002                            
   1.0486496863195751       0.94847150361269594                                 
    1    1                                                                      
  0.72018956988162897        1.0000000000000000                                 
    1    1                                                                      
  0.33281514997841094        1.0000000000000000                                 
    1    1                                                                      
  0.12166473257337672        1.0000000000000000                                 
FINISH                                                                          

********************************************************************************
 One- and two-electron integrals over symmetry-adapted AOs are calculated.

  Spherical harmonics are used.
  
  Integrals less than  0.10E-13 are neglected.

   Basis function not normalized: 
   Center (as ordered in MOL file):   1
   Angular Momentum type          : f
   Offset within angular momentum :  1
   <chi|chi>                      :    0.0655468437
   Basis function not normalized: 
   Center (as ordered in MOL file):   2
   Angular Momentum type          : f
   Offset within angular momentum :  1
   <chi|chi>                      :    1.1314235094
   Basis function not normalized: 
   Center (as ordered in MOL file):   3
   Angular Momentum type          : f
   Offset within angular momentum :  1
   <chi|chi>                      :    1.1314235094
   Basis function not normalized: 
   Center (as ordered in MOL file):   4
   Angular Momentum type          : f
   Offset within angular momentum :  1
   <chi|chi>                      :    1.1314235094
   Basis function not normalized: 
   Center (as ordered in MOL file):   5
   Angular Momentum type          : f
   Offset within angular momentum :  1
   <chi|chi>                      :    1.1314235094
  Nuclear repulsion energy :   13.4395250729 a.u.
  required memory for a1 array               5020162  words 
  required memory for a2 array               2030294  words 
 @GETMEM-I,  Allocated      69 MB of main memory.
  @MOLECU-I, One electron integrals (CPU/WALL):        1.41/       1.40 seconds.
  @TWOEL-I,   49553965 integrals of symmetry type  I I I I
  @TWOEL-I, Total number of 2-e integrals   49553965.
  @MOLECU-I, Two electron integrals (CPU/WALL):     1131.87/    1147.69 seconds.
  @CHECKOUT-I, Total execution time (CPU/WALL):     1136.78/    1152.94 seconds.
--executable xvmol finished with status     0 in     1153.07 seconds (walltime).
 --invoking executable--
/usr/local/cfour/bin/xvmol2ja
 @GETMEM-I,  Allocated     762 MB of main memory.
  @CHECKOUT-I, Total execution time (CPU/WALL):        0.06/       0.06 seconds.
--executable xvmol2ja finished with status     0 in        0.33 seconds (walltime).
 --invoking executable--
/usr/local/cfour/bin/xvscf
  There are  147 functions in the AO basis.

  There are 1 irreducible representations.

       Irrep        # of functions
         1                147


  Parameters for SCF calculation: 
        SCF reference function:  RHF  
  Maximum number of iterations:  150
     Full symmetry point group: T d 
     Computational point group: C1  
        Initial density matrix: MOREAD                 
     SCF convergence tolerance: 10**(-10)
  DIIS convergence acceleration:  ON
          Latest start for DIIS:   8
                     DIIS order:   6

  Memory information:    1624299 words required.
  Fock matrices are constructed from AO integral file.
 @GETMEM-I,  Allocated      12 MB of main memory.
  Initialization and symmetry analysis required      0.016 seconds.

  @INITGES-I, Occupancies from core Hamiltonian:

          Alpha population by irrep:   5
           Beta population by irrep:   5


 total no. of electrons in initial guess :   0.0000000000000000     
  --------------------------------------------------------------------
  Iteration         Total Energy            Largest Density Difference
  --------------------------------------------------------------------
       0            13.439525072866369              0.0000000000D+00
       1            -9.559796113319111              0.8085556557D+00
       2           -11.198310620838354              0.6519172823D+00
       3           -11.225993570995831              0.3292945181D-01
       4           -11.228311227380098              0.2647059199D-01
       5           -11.228589032425946              0.8620206322D-02
       6           -11.228599556150192              0.1218562658D-02
       7           -11.228599822156992              0.1740197671D-03
       8           -11.228599831135847              0.4621297689D-04
       9           -11.228599831271557              0.9294401509D-05
      10           -11.228599831271703              0.3992153843D-06
      11           -11.228599831271881              0.5761294797D-07
      12           -11.228599831271834              0.1702220631D-07
      13           -11.228599831271650              0.2309237246D-08
      14           -11.228599831271845              0.1516744508D-09

  SCF has converged.

 Density matrix saved to file den.dat
 total electron number:   10.000000000000037     
     E(SCF)=       -11.228599831271767              0.2011013578D-10

  Eigenvector printing suppressed.

 @PUTMOS-I, Writing converged MOs to NEWMOS. 
 @PUTMOS-I, Symmetry   1 Full Blocks 36 Partial Blocksize   3



  ORBITAL EIGENVALUES (ALPHA)  (1H = 27.2113838 eV)

       MO #        E(hartree)               E(eV)           FULLSYM    COMPSYM
       ----   --------------------   --------------------   -------   ---------
    1     1          -3.1153762194         -84.7736980483      A1         A (1)
    2     2          -0.5127942567         -13.9538413395      T2         A (1)
    3     3          -0.5127942567         -13.9538413395      T2         A (1)
    4     4          -0.5127942567         -13.9538413395      T2         A (1)
    5     5          -0.0319743453          -0.8700661816      A1         A (1)
  +++++++++++++++++++++++++++++++++++++++++++++++++++++++++++++++++++++++++++++
    6     6           0.1180269597           3.2116769003      T2         A (1)
    7     7           0.1180269597           3.2116769003      T2         A (1)
    8     8           0.1180269597           3.2116769003      T2         A (1)
    9     9           0.2120239209           5.7694642907       E         A (1)
   10    10           0.2120239209           5.7694642907       E         A (1)
   11    11           0.2730536652           7.4301680870      T2         A (1)
   12    12           0.2730536652           7.4301680870      T2         A (1)
   13    13           0.2730536652           7.4301680870      T2         A (1)
   14    14           0.2765180226           7.5244380465      T1         A (1)
   15    15           0.2765180226           7.5244380465      T1         A (1)
   16    16           0.2765180226           7.5244380465      T1         A (1)
   17    17           0.3496652450           9.5148751911      A1         A (1)
   18    18           0.4523531944          12.3091563953       E         A (1)
   19    19           0.4523531944          12.3091563953       E         A (1)
   20    20           0.4575786697          12.4513488095      T1         A (1)
   21    21           0.4575786697          12.4513488095      T1         A (1)
   22    22           0.4575786697          12.4513488095      T1         A (1)
   23    23           0.4949962531          13.4695330323      A1         A (1)
   24    24           0.4951137526          13.4727303557      T2         A (1)
   25    25           0.4951137526          13.4727303557      T2         A (1)
   26    26           0.4951137526          13.4727303557      T2         A (1)
   27    27           0.5981838797          16.2774111446      T1         A (1)
   28    28           0.5981838797          16.2774111446      T1         A (1)
   29    29           0.5981838797          16.2774111446      T1         A (1)
   30    30           0.6058092446          16.4849078770      T2         A (1)
   31    31           0.6058092446          16.4849078770      T2         A (1)
   32    32           0.6058092446          16.4849078770      T2         A (1)
   33    33           0.6747725976          18.3614961442      T2         A (1)
   34    34           0.6747725976          18.3614961442      T2         A (1)
   35    35           0.6747725976          18.3614961442      T2         A (1)
   36    36           0.6788603103          18.4727284641      T1         A (1)
   37    37           0.6788603103          18.4727284641      T1         A (1)
   38    38           0.6788603103          18.4727284641      T1         A (1)
   39    39           0.7187456583          19.5580639758      T2         A (1)
   40    40           0.7187456583          19.5580639758      T2         A (1)
   41    41           0.7187456583          19.5580639758      T2         A (1)
   42    42           0.7785666164          21.1858750267      A2         A (1)
   43    43           0.8081569914          21.9910700788      A1         A (1)
   44    44           0.8809098285          23.9707754544      T1         A (1)
   45    45           0.8809098285          23.9707754544      T1         A (1)
   46    46           0.8809098285          23.9707754544      T1         A (1)
   47    47           0.9327145625          25.3804539552       E         A (1)
   48    48           0.9327145625          25.3804539552       E         A (1)
   49    49           1.1210775635          30.5060718710      T2         A (1)
   50    50           1.1210775635          30.5060718711      T2         A (1)
   51    51           1.1210775635          30.5060718711      T2         A (1)
   52    52           1.1757294406          31.9932250754      T1         A (1)
   53    53           1.1757294406          31.9932250754      T1         A (1)
   54    54           1.1757294406          31.9932250754      T1         A (1)
   55    55           1.2296066181          33.4592976310      A1         A (1)
   56    56           1.3157540134          35.8034874705       E         A (1)
   57    57           1.3157540134          35.8034874705       E         A (1)
   58    58           1.3671939191          37.2032384885      T2         A (1)
   59    59           1.3671939191          37.2032384885      T2         A (1)
   60    60           1.3671939191          37.2032384885      T2         A (1)
   61    61           1.3953700318          37.9699495070      T1         A (1)
   62    62           1.3953700319          37.9699495070      T1         A (1)
   63    63           1.3953700319          37.9699495070      T1         A (1)
   64    64           1.5493030996          42.1586812950      T1         A (1)
   65    65           1.5493030996          42.1586812950      T1         A (1)
   66    66           1.5493030996          42.1586812950      T1         A (1)
   67    67           1.5553565075          42.3234029028      T2         A (1)
   68    68           1.5553565075          42.3234029028      T2         A (1)
   69    69           1.5553565075          42.3234029028      T2         A (1)
   70    70           1.6921624601          46.0460821877      A1         A (1)
   71    71           1.8231742050          49.6110930635      A2         A (1)
   72    72           1.9818588575          53.9291220480      T2         A (1)
   73    73           1.9818588575          53.9291220480      T2         A (1)
   74    74           1.9818588575          53.9291220480      T2         A (1)
   75    75           2.0255490275          55.1179920313      A1         A (1)
   76    76           2.1083806975          57.3719563972      T1         A (1)
   77    77           2.1083806975          57.3719563972      T1         A (1)
   78    78           2.1083806975          57.3719563972      T1         A (1)
   79    79           2.3054065175          62.7333016072      T2         A (1)
   80    80           2.3054065175          62.7333016072      T2         A (1)
   81    81           2.3054065175          62.7333016072      T2         A (1)
   82    82           2.6576261240          72.3176845089       E         A (1)
   83    83           2.6576261240          72.3176845089       E         A (1)
   84    84           2.9043253876          79.0307128584      T2         A (1)
   85    85           2.9043253876          79.0307128584      T2         A (1)
   86    86           2.9043253876          79.0307128584      T2         A (1)
   87    87           3.0079409617          81.8502360165      A1         A (1)
   88    88           3.1231230470          84.9844999475      T1         A (1)
   89    89           3.1231230470          84.9844999475      T1         A (1)
   90    90           3.1231230470          84.9844999475      T1         A (1)
   91    91           3.1744321613          86.3806919516      T2         A (1)
   92    92           3.1744321613          86.3806919516      T2         A (1)
   93    93           3.1744321613          86.3806919516      T2         A (1)
   94    94           3.3063385605          89.9700476067       E         A (1)
   95    95           3.3063385605          89.9700476067       E         A (1)
   96    96           3.3621555928          91.4889062977      T2         A (1)
   97    97           3.3621555928          91.4889062978      T2         A (1)
   98    98           3.3621555928          91.4889062978      T2         A (1)
   99    99           3.4486196503          93.8417129530      T1         A (1)
  100   100           3.4486196503          93.8417129531      T1         A (1)
  101   101           3.4486196503          93.8417129531      T1         A (1)
  102   102           3.5445011970          96.4507825199      T1         A (1)
  103   103           3.5445011970          96.4507825199      T1         A (1)
  104   104           3.5445011970          96.4507825200      T1         A (1)
  105   105           3.5696376372          97.1347798431      A2         A (1)
  106   106           5.3942692238         146.7855302744      A1         A (1)
  107   107           5.5438929252         150.8569982426      T2         A (1)
  108   108           5.5438929252         150.8569982426      T2         A (1)
  109   109           5.5438929252         150.8569982426      T2         A (1)
  110   110           5.7022786515         155.1668930315      T1         A (1)
  111   111           5.7022786515         155.1668930315      T1         A (1)
  112   112           5.7022786515         155.1668930315      T1         A (1)
  113   113           6.0815839225         165.4883143453      T2         A (1)
  114   114           6.0815839225         165.4883143453      T2         A (1)
  115   115           6.0815839225         165.4883143454      T2         A (1)
  116   116           6.4065808844         174.3319314179       E         A (1)
  117   117           6.4065808844         174.3319314179       E         A (1)
  118   118           6.4432561676         175.3299166248      A1         A (1)
  119   119           6.5873933777         179.2520895701      T1         A (1)
  120   120           6.5873933777         179.2520895701      T1         A (1)
  121   121           6.5873933777         179.2520895702      T1         A (1)
  122   122           6.7560595775         183.8417302705       E         A (1)
  123   123           6.7560595775         183.8417302705       E         A (1)
  124   124           6.7983957822         184.9937569868      T1         A (1)
  125   125           6.7983957822         184.9937569868      T1         A (1)
  126   126           6.7983957822         184.9937569868      T1         A (1)
  127   127           6.8194229934         185.5659365022      T2         A (1)
  128   128           6.8194229934         185.5659365022      T2         A (1)
  129   129           6.8194229934         185.5659365022      T2         A (1)
  130   130           6.8766138587         187.1221790868      A1         A (1)
  131   131           6.9487861502         189.0860870130      T2         A (1)
  132   132           6.9487861502         189.0860870130      T2         A (1)
  133   133           6.9487861502         189.0860870130      T2         A (1)
  134   134           6.9671395707         189.5855089818      A2         A (1)
  135   135           7.1574110315         194.7630587338      T2         A (1)
  136   136           7.1574110315         194.7630587339      T2         A (1)
  137   137           7.1574110315         194.7630587339      T2         A (1)
  138   138           7.7380634363         210.5634141856      T1         A (1)
  139   139           7.7380634363         210.5634141856      T1         A (1)
  140   140           7.7380634363         210.5634141856      T1         A (1)
  141   141          19.0695237092         518.9081289074      A1         A (1)
  142   142          19.2075567738         522.6641996072      T2         A (1)
  143   143          19.2075567738         522.6641996072      T2         A (1)
  144   144          19.2075567738         522.6641996072      T2         A (1)
  145   145          19.3974453136         527.8313295486      T1         A (1)
  146   146          19.3974453136         527.8313295486      T1         A (1)
  147   147          19.3974453136         527.8313295486      T1         A (1)


  VSCF finished.

  @CHECKOUT-I, Total execution time (CPU/WALL):       32.03/      48.41 seconds.
--executable xvscf finished with status     0 in       48.54 seconds (walltime).
  The final electronic energy is       -11.228599831271767 a.u. 
  This computation required                         1202.87 seconds (walltime).
