[Molden Format]
[Atoms] (Angs)
  K      1   19      0.00000000      0.00000000      0.00000000
[GTO]
1    0
S    6    1.000000
   1.62981400E+05    5.97750400E-04 
   2.44321500E+04    4.63441100E-03 
   5.56062300E+03    2.40911500E-02 
   1.57641500E+03    9.73959300E-02 
   5.21282700E+02    3.00660900E-01 
   1.69051800E+02    6.72882500E-01 
S    3    1.000000
   2.49452200E+02    8.81085700E-02 
   6.99992000E+01    6.14720600E-01 
   2.92429300E+01    3.53287700E-01 
S    1    1.000000
   8.39240000E+00    1.00000000E+00 
S    1    1.000000
   3.39900100E+00    1.00000000E+00 
S    1    1.000000
   8.34596000E-01    1.00000000E+00 
S    1    1.000000
   3.22037000E-01    1.00000000E+00 
S    1    1.000000
   9.40460000E-02    1.00000000E+00 
S    1    1.000000
   2.74640000E-02    1.00000000E+00 
P    6    1.000000
   4.40003600E+03    4.15485600E-04 
   1.04202800E+03    3.64330000E-03 
   3.40015100E+02    2.00236300E-02 
   1.29694200E+02    8.32102100E-02 
   5.34766000E+01    2.78924200E-01 
   2.29300900E+01    7.05993900E-01 
P    2    1.000000
   9.93151500E+00    5.63329500E-01 
   4.32173500E+00    4.87480500E-01 
P    1    1.000000
   1.79032700E+00    1.00000000E+00 
P    1    1.000000
   7.02128000E-01    1.00000000E+00 
P    1    1.000000
   2.60909000E-01    1.00000000E+00 
P    1    1.000000
   4.67940000E-02    1.00000000E+00 
P    1    1.000000
   1.65400000E-02    1.00000000E+00 
D    3    1.000000
   1.55978800E+01    5.98184800E-02 
   4.14856900E+00    3.05597900E-01 
   1.34156600E+00    7.72443700E-01 
D    1    1.000000
   4.37806000E-01    1.00000000E+00 
D    1    1.000000
   1.31287000E-01    1.00000000E+00 
SP   1    1.000000
   7.00000000E-03    1.00000000E+00   1.00000000E+00 
D    1    1.000000
   2.00000000E-01    1.00000000E+00 
D    1    1.000000
   5.00000000E-02    1.00000000E+00 
D    1    1.000000
   1.25000000E-02    1.00000000E+00 
F    1    1.000000
   2.40000000E+00    1.00000000E+00 
F    1    1.000000
   6.00000000E-01    1.00000000E+00 
D    1    1.000000
   1.50000000E+01    1.00000000E+00 
F    1    1.000000
   1.70000000E+01    1.00000000E+00 

[MO]
Sym=X
Ene= -133.533145
Spin=Alpha
Occup=1
     1    3.936240410593e-01
     2    6.645375834663e-01
     3    1.980256157267e-02
     4   -4.179302743202e-03
     5    1.466174312618e-03
     6   -9.205615200580e-04
     7    3.654312098828e-04
     8   -1.493233381026e-04
     9   -2.401692338712e-16
    10    1.373339028099e-16
    11   -3.425072091998e-16
    12    3.674930767956e-16
    13    3.946851179720e-16
    14    1.014927589569e-15
    15   -2.959443354512e-16
    16   -1.770637666481e-15
    17   -2.556053014618e-15
    18    1.783609481346e-16
    19    2.777453185763e-15
    20    2.545387266685e-15
    21   -6.524900677945e-17
    22   -1.728800431045e-15
    23   -1.800601106239e-15
    24    1.512284071837e-18
    25    6.965196590187e-16
    26    6.215484921590e-16
    27   -3.211968497366e-18
    28   -6.656233575989e-16
    29   -7.338217574454e-16
    30   -2.332982330615e-16
    31    4.001278323885e-16
    32    7.000061345415e-16
    33   -1.060391839051e-15
    34    2.012727339297e-16
    35    1.559883415526e-15
    36    9.736594015540e-16
    37   -1.496942085650e-15
    38    1.281227114025e-16
    39   -1.352057161001e-15
    40    3.701917831822e-15
    41    1.073121898107e-15
    42   -5.128534192998e-16
    43    8.293549365412e-16
    44   -7.499581566572e-15
    45    4.166851855920e-05
    46    1.571400663849e-18
    47    4.408993487120e-16
    48    3.057291471793e-16
    49   -3.820201448978e-15
    50   -1.429715958705e-15
    51    1.698139439758e-15
    52   -8.174898586097e-16
    53    6.938595985986e-15
    54   -9.683908173336e-16
    55   -5.916584782256e-16
    56   -4.479053723289e-16
    57    2.895319149609e-16
    58    2.251749964564e-15
    59    7.530416180578e-16
    60   -2.789353010077e-16
    61    1.133570264821e-16
    62    2.243907432841e-16
    63   -8.472054141445e-16
    64   -6.578348904724e-17
    65   -3.449164679518e-19
    66   -2.005218547977e-16
    67    8.241247104979e-17
    68    1.726135782324e-17
    69   -3.090825077305e-17
    70   -4.594720507027e-16
    71   -1.053553591967e-16
    72    5.274522637400e-18
    73   -8.326099793166e-17
    74   -1.419640688182e-16
    75    5.005835809496e-18
    76    5.952252668397e-17
    77    4.736260237345e-16
    78    1.727543530221e-16
    79    2.100654063397e-16
    80    3.419829948830e-16
    81    1.800775769016e-17
    82    3.443588999414e-17
    83   -2.746954690499e-17
    84   -3.099744870844e-16
    85   -1.227219547195e-16
    86   -3.653721178029e-17
    87    1.687566349299e-16
    88    5.778590040807e-18
    89    5.123608532174e-17
Sym=X
Ene= -14.491357
Spin=Alpha
Occup=1
     1   -1.159802147900e-01
     2   -3.449107179543e-01
     3    5.235156733393e-01
     4    5.880318984625e-01
     5    5.153972276870e-02
     6   -1.493834387548e-02
     7    5.448174821952e-03
     8   -2.135117891270e-03
     9   -2.869424233182e-17
    10   -3.884821682898e-16
    11   -1.260430998781e-15
    12   -1.918663362054e-16
    13   -7.209849522911e-16
    14   -2.215932910395e-15
    15    6.304042890808e-17
    16    4.795863848228e-16
    17    3.535478947718e-16
    18   -2.166509393512e-16
    19   -1.354993087264e-15
    20   -1.165993026995e-15
    21    3.857062458571e-16
    22    4.277971057835e-16
    23    4.544866071972e-16
    24   -3.016970583481e-17
    25    7.039128018567e-16
    26   -1.067580904779e-15
    27    4.637060675188e-17
    28   -6.536031264143e-16
    29    7.175936737227e-16
    30   -1.182793107301e-14
    31   -8.775853250213e-16
    32    8.944803888023e-17
    33   -2.686447506854e-15
    34    3.196619241732e-16
    35    1.756136893692e-14
    36    1.118187200924e-15
    37   -2.728225414224e-15
    38    6.194158389422e-15
    39   -3.761852019284e-16
    40    4.217778903006e-15
    41    3.126619118943e-15
    42   -8.159938269631e-15
    43    5.732025924122e-15
    44    9.043815250146e-16
    45    5.905678629504e-04
    46    2.828438793583e-18
    47   -2.668019197220e-16
    48   -5.670443275791e-16
    49   -1.947328499174e-14
    50   -3.185954228045e-15
    51    8.247761608379e-15
    52   -9.611049873872e-15
    53   -6.545304072008e-17
    54    3.788001140660e-15
    55   -2.990759347861e-16
    56    2.685063132992e-15
    57   -1.040989489104e-15
    58   -5.254728047717e-16
    59   -3.977331500230e-15
    60    3.942250171388e-16
    61   -7.890048493429e-16
    62   -6.432579688464e-16
    63    4.656320329523e-16
    64    3.231946822638e-17
    65    1.309287178766e-16
    66    1.355670584762e-16
    67   -1.370672682889e-17
    68   -4.187323495389e-16
    69   -7.351401278038e-17
    70    1.787731745586e-16
    71   -2.189687688644e-17
    72   -1.934321407720e-17
    73    2.004242111452e-17
    74    1.036781181837e-16
    75   -3.609268262600e-16
    76    1.314781307993e-17
    77   -1.697754835976e-16
    78   -9.930815853515e-15
    79    2.543343074842e-17
    80   -3.527553456446e-16
    81   -1.803484223177e-15
    82   -6.425229824865e-17
    83    1.110565717217e-16
    84   -1.700779520335e-16
    85    1.276731890948e-16
    86   -1.474049861955e-16
    87   -1.658001291986e-16
    88    5.778458738651e-18
    89   -1.207372833708e-16
Sym=X
Ene= -11.520580
Spin=Alpha
Occup=1
     1   -3.666722751949e-16
     2   -9.604673766540e-16
     3    1.993271946183e-15
     4    8.930859893113e-16
     5    1.038659641102e-16
     6    6.523951352437e-16
     7   -1.075929561846e-15
     8    2.776411335108e-16
     9    7.397719341280e-17
    10    6.360476195152e-16
    11    3.382196645793e-01
    12    1.491670985907e-16
    13    6.133770325393e-16
    14    7.153705979475e-01
    15   -8.096151862111e-18
    16   -1.814810651493e-16
    17    8.128331713231e-02
    18   -4.854556929805e-18
    19   -1.208200276752e-15
    20   -1.009290712378e-03
    21    4.407978979655e-18
    22    8.105043672446e-17
    23    1.085380402935e-03
    24    1.431852764611e-17
    25    5.053998428294e-16
    26   -3.252372751167e-04
    27   -3.046374876805e-17
    28   -1.126513962501e-15
    29    2.266371714063e-04
    30    3.514904028198e-16
    31    3.068692190249e-17
    32   -1.675868293177e-16
    33   -2.298662754962e-16
    34   -6.154614262288e-16
    35   -9.733496234835e-16
    36   -4.741817741599e-16
    37   -3.034010390562e-16
    38    1.011124870852e-15
    39    2.317147599493e-15
    40   -3.235232716359e-15
    41   -1.399171256991e-15
    42    1.001105022371e-15
    43    1.228480179589e-15
    44    6.709140903388e-15
    45   -3.553926006075e-16
    46    4.439215092590e-17
    47    2.026812498490e-16
    48   -9.392820663965e-05
    49    3.412115516799e-15
    50    1.705013401239e-15
    51   -2.928392121509e-16
    52   -1.710395393465e-15
    53   -7.355298405120e-15
    54    1.956559614912e-15
    55    3.539207811864e-16
    56   -4.569835437004e-16
    57   -7.637580402868e-16
    58   -1.626027714258e-15
    59   -3.972796536542e-16
    60   -5.940092392699e-17
    61    1.694692403270e-16
    62    6.265213551247e-16
    63    3.806323345127e-16
    64    2.287352574519e-17
    65    4.381684328248e-17
    66    4.920206415849e-16
    67    9.057922944517e-17
    68   -3.109214054620e-16
    69    3.300415107836e-18
    70   -1.102271623498e-17
    71    2.085026380868e-15
    72   -2.381114741961e-17
    73   -2.026803854965e-16
    74    4.093661144465e-16
    75    7.532878167118e-18
    76    4.391058979726e-18
    77   -1.687003334867e-16
    78   -7.094331474784e-17
    79    1.590990014584e-17
    80    1.159475541108e-16
    81   -7.794233240078e-17
    82    1.411381049322e-16
    83   -4.057139230067e-16
    84   -6.055318479147e-18
    85    3.439016329095e-17
    86    3.711139873597e-17
    87   -4.845639161587e-17
    88    1.609916262776e-19
    89    3.027267515293e-17
Sym=X
Ene= -11.520580
Spin=Alpha
Occup=1
     1   -1.718003556207e-16
     2   -1.429417539776e-16
     3    4.060401483514e-16
     4    1.152673743446e-16
     5    1.231024303734e-16
     6   -7.224063089680e-17
     7    1.775264341845e-17
     8   -2.312067931030e-18
     9    3.382196645793e-01
    10   -2.265185372732e-16
    11   -6.986224968944e-17
    12    7.153705979475e-01
    13   -4.744593750969e-16
    14   -1.514599344051e-16
    15    8.128331713231e-02
    16   -6.037695503022e-17
    17   -3.889503939988e-17
    18   -1.009290712417e-03
    19    1.976637717973e-18
    20    3.839608543410e-18
    21    1.085380402948e-03
    22   -2.916776303034e-18
    23   -3.523331059116e-18
    24   -3.252372751125e-04
    25    6.481140860750e-19
    26    1.230133984331e-18
    27    2.266371714016e-04
    28   -7.346779500317e-19
    29   -1.333680006468e-18
    30   -5.264324014476e-17
    31    7.635765246952e-17
    32   -6.577497040330e-17
    33   -5.010403317668e-17
    34   -6.195572515758e-17
    35   -4.728225859344e-18
    36   -6.015289571292e-16
    37   -2.655313467230e-16
    38    5.714487179974e-16
    39   -8.698951556663e-17
    40    2.307622747152e-16
    41   -1.317634380331e-15
    42    2.323239808319e-17
    43    8.714950657439e-16
    44   -1.012592101606e-16
    45    5.513889026725e-18
    46   -9.392820663847e-05
    47    1.693984235224e-19
    48   -9.464351270068e-21
    49   -2.718519292008e-16
    50    1.733545101368e-15
    51    1.496857803536e-16
    52   -7.005244799075e-16
    53    1.154836007284e-16
    54    1.531243367396e-16
    55    2.412337709923e-16
    56    1.577908223595e-16
    57   -1.581097042631e-16
    58    1.240688241258e-16
    59   -2.068620114983e-16
    60    1.334688077662e-16
    61   -2.106322468070e-16
    62    1.949945991454e-16
    63   -7.979663042680e-17
    64    3.022015511481e-18
    65   -4.548459505321e-16
    66   -1.613128951512e-16
    67    2.067702898179e-16
    68    1.471161822926e-17
    69   -5.190000393244e-16
    70   -6.499888784640e-17
    71    1.755608321777e-16
    72    1.358856785381e-15
    73    8.442584058474e-17
    74   -2.320551606746e-16
    75    1.778928265609e-17
    76    5.491040416536e-16
    77    9.330387146901e-17
    78    2.291746835462e-16
    79    1.869995781090e-16
    80    9.827711785608e-17
    81   -1.389986522611e-16
    82    1.850822712752e-16
    83    1.848909696412e-16
    84   -2.135142506979e-16
    85    1.128909279477e-16
    86   -2.246648587437e-17
    87    3.057389862628e-18
    88    4.046716674378e-17
    89   -2.570545443942e-17
Sym=X
Ene= -11.520580
Spin=Alpha
Occup=1
     1    2.176408374782e-17
     2   -1.209747761580e-16
     3   -1.614219556067e-16
     4   -5.211649821893e-16
     5    5.536360974020e-15
     6   -6.522359415838e-15
     7    3.615679908049e-15
     8   -2.221711222522e-15
     9    2.750604604849e-16
    10    3.382196645793e-01
    11   -8.229591319121e-16
    12    6.175895391726e-16
    13    7.153705979475e-01
    14   -1.265366595487e-15
    15    5.301330618971e-17
    16    8.128331713232e-02
    17    7.089495201077e-16
    18    6.470177195434e-17
    19   -1.009290712432e-03
    20    3.114622045909e-17
    21   -6.492132120429e-17
    22    1.085380402957e-03
    23   -4.677821676512e-16
    24    1.269154916517e-16
    25   -3.252372751166e-04
    26    5.784199872673e-16
    27   -2.717433373691e-16
    28    2.266371714050e-04
    29    1.324989821811e-17
    30   -9.523695958789e-16
    31   -9.127037889149e-16
    32    6.039057011774e-16
    33   -5.830155285288e-16
    34    9.111899776775e-16
    35    4.120570794121e-15
    36    2.352783451711e-15
    37   -7.993913815770e-16
    38    2.543728538268e-15
    39   -4.950292795039e-15
    40    8.273182648585e-15
    41    6.313032484974e-15
    42    3.351882247297e-15
    43    6.971302865107e-15
    44   -1.286527632448e-14
    45    1.028487274498e-15
    46    2.801321558888e-16
    47   -9.392820664077e-05
    48   -6.509519009931e-16
    49   -1.040334560506e-14
    50   -7.044054006688e-15
    51   -1.905279405160e-15
    52   -7.725064443234e-15
    53    1.460480252031e-14
    54   -2.597449919289e-15
    55   -1.893226113402e-15
    56   -1.297189252077e-15
    57   -1.391129819813e-15
    58    3.245224455556e-15
    59    4.359532747977e-16
    60    3.427400014201e-16
    61    2.832884738573e-16
    62    5.711713960796e-16
    63   -3.385588744642e-16
    64   -1.582245446046e-16
    65   -1.424563970268e-17
    66    1.368693245744e-16
    67   -7.761937661512e-18
    68    1.843377937794e-17
    69   -5.003225695135e-18
    70   -2.678784855786e-16
    71    4.363534990871e-17
    72    7.889390751631e-18
    73    1.484821012390e-15
    74    1.936967278427e-17
    75    2.229353711842e-17
    76    7.350442949598e-19
    77    6.838912584611e-16
    78    1.590013927907e-16
    79    1.568845266369e-16
    80   -3.033765232912e-17
    81    1.230801677132e-16
    82   -2.131794487029e-16
    83    1.129379924356e-16
    84   -1.755732550883e-17
    85   -4.002729624125e-16
    86    6.795088380898e-17
    87    4.786983175985e-17
    88   -2.357991529528e-18
    89   -2.835563529336e-16
Sym=X
Ene= -1.751660
Spin=Alpha
Occup=1
     1    3.812534559376e-02
     2    1.224996577912e-01
     3   -2.491014106576e-01
     4   -4.480778757329e-01
     5    6.156640671311e-01
     6    6.032208984092e-01
     7    1.414793731117e-02
     8    2.812923166556e-03
     9   -3.966336981180e-16
    10    5.595211975471e-17
    11    2.932371541199e-16
    12   -9.806832888064e-16
    13    3.020870006112e-18
    14    4.717443203165e-16
    15    2.644725407082e-16
    16    1.166264528985e-15
    17   -3.933714327419e-16
    18    3.468860290799e-15
    19   -3.391775871075e-15
    20   -1.527549759237e-15
    21    6.826298924686e-16
    22    2.443630040931e-15
    23    4.867897467046e-16
    24    5.691279425363e-16
    25   -2.434249370779e-15
    26   -1.413035736412e-15
    27   -1.741476780780e-15
    28    2.468576784198e-15
    29    1.178443011110e-15
    30    8.098164679436e-13
    31   -3.239136538765e-16
    32    5.958927601107e-17
    33    1.595238836071e-13
    34   -1.149169438563e-16
    35    9.433668870172e-13
    36    1.500417198664e-15
    37    1.027224039710e-15
    38    1.829290756819e-13
    39    1.221269063376e-16
    40    7.315882950575e-14
    41    2.469970816805e-15
    42    2.845485269559e-15
    43    1.024247550944e-14
    44   -2.848639215940e-16
    45   -1.023565376056e-03
    46    1.689285000685e-16
    47   -1.011044397011e-15
    48   -6.027237090435e-16
    49   -7.042912772689e-13
    50   -3.667159844376e-15
    51   -2.860419084717e-15
    52   -1.333063314830e-13
    53    3.573831626796e-17
    54   -2.968380877050e-13
    55   -3.573482544873e-16
    56   -5.505437543476e-16
    57   -5.534381746378e-14
    58    1.839680613243e-16
    59    9.605365383203e-14
    60    3.910431230664e-16
    61    1.062730136802e-17
    62    1.795847373267e-14
    63   -4.171601851500e-17
    64   -2.878258320885e-17
    65    8.209338388186e-17
    66   -2.727977386569e-17
    67   -1.597554328474e-17
    68   -1.004294107129e-16
    69   -9.046291306159e-17
    70   -3.018681882203e-17
    71    3.186812823787e-16
    72   -1.701454731994e-15
    73   -9.628526068558e-17
    74   -1.284344864089e-16
    75   -9.011243442642e-18
    76    3.029710054218e-17
    77    3.786037064010e-17
    78   -1.285626922848e-14
    79    1.290955958323e-17
    80   -6.049672955913e-17
    81   -2.789191827544e-15
    82    3.884959732565e-17
    83   -4.310848847571e-17
    84   -7.602076825313e-17
    85   -9.794692760373e-17
    86    1.942928023086e-16
    87   -1.166643518545e-16
    88    6.968922565231e-18
    89    1.841450389790e-16
Sym=X
Ene= -0.955934
Spin=Alpha
Occup=1
     1    4.872649799338e-17
     2    1.501737693769e-16
     3   -3.519460990760e-16
     4   -4.509174422657e-16
     5    6.739341748765e-16
     6    1.356013241404e-15
     7   -6.513703201595e-16
     8   -1.709719932894e-15
     9   -1.040639924191e-17
    10    1.192950006822e-18
    11   -1.083145646472e-01
    12   -5.832503494511e-17
    13   -2.948982035176e-16
    14   -2.481740834915e-01
    15    2.034352051495e-16
    16    9.784508368514e-17
    17    2.009296796747e-01
    18   -9.538196415362e-16
    19    4.720588671775e-16
    20    5.600292806049e-01
    21    2.199303966247e-15
    22    2.931900438302e-16
    23    3.884118262062e-01
    24   -6.076688543162e-16
    25   -5.403175466148e-16
    26    3.295426684507e-02
    27    4.321248561845e-16
    28    2.540332957361e-15
    29   -1.450152568902e-02
    30   -1.596706836264e-17
    31    3.094269265302e-16
    32   -2.009123678212e-16
    33   -1.195612346314e-16
    34    1.336317155018e-16
    35    4.174943299295e-16
    36    7.493569078407e-16
    37   -1.669518874767e-16
    38   -9.455222266330e-16
    39   -1.556946731037e-15
    40    1.516597666296e-15
    41    2.030254031255e-15
    42   -2.495577345203e-15
    43   -3.802836945374e-15
    44   -3.149982505263e-15
    45    1.619500981996e-15
    46   -6.491740154543e-18
    47   -1.693575822561e-15
    48    5.676265098024e-03
    49   -1.389245600484e-15
    50   -1.484627502103e-15
    51    1.738669932378e-15
    52    4.042723115584e-15
    53    4.116148128035e-15
    54   -1.208251548757e-15
    55   -2.366885730481e-16
    56    2.026923607271e-15
    57    1.663744252447e-15
    58   -1.840259433995e-18
    59   -1.303177752466e-16
    60   -2.727143994694e-17
    61   -4.850505213713e-16
    62   -1.385592631100e-15
    63    2.343043418620e-16
    64    1.836172680892e-14
    65   -4.714815674694e-17
    66   -3.028153777401e-17
    67    3.114126208269e-15
    68    6.487235190536e-18
    69   -3.488147514302e-18
    70   -4.378838635067e-17
    71    1.185906667284e-13
    72    1.272310848624e-16
    73    2.862236675150e-16
    74    1.756050801362e-14
    75   -1.240743305287e-17
    76    1.660099937535e-17
    77    6.903916266807e-17
    78   -9.135089803606e-17
    79   -8.631305019576e-17
    80    2.322549646072e-16
    81    1.494024928098e-16
    82   -2.607965097753e-17
    83    6.945636021670e-17
    84    1.773788562249e-19
    85   -7.549119583984e-18
    86   -3.896935229468e-17
    87    3.161662724890e-18
    88    8.999493719849e-20
    89   -6.382382227104e-18
Sym=X
Ene= -0.955934
Spin=Alpha
Occup=1
     1   -1.345312715706e-16
     2   -4.850703134399e-16
     3    1.188405202299e-15
     4    9.213338586790e-16
     5   -4.727160173240e-16
     6   -3.199867534715e-15
     7   -9.635603365587e-16
     8    4.307830647453e-16
     9   -1.083145646468e-01
    10   -8.151677488682e-16
    11    1.205917562215e-16
    12   -2.481740834906e-01
    13   -1.846749884472e-15
    14    2.935702509973e-16
    15    2.009296796741e-01
    16    1.417887510125e-15
    17   -3.069636242116e-16
    18    5.600292806013e-01
    19    4.771024883946e-15
    20   -1.878467738903e-16
    21    3.884118262075e-01
    22    1.567525115461e-15
    23   -1.286549816020e-15
    24    3.295426685503e-02
    25    6.118283367066e-16
    26    6.089305952877e-16
    27   -1.450152569238e-02
    28   -3.921188756908e-16
    29   -3.842275508140e-16
    30   -7.624334500418e-16
    31    8.920236683034e-16
    32    3.688491433197e-17
    33    4.063332110998e-15
    34    6.048571299890e-17
    35   -9.596898209030e-16
    36    4.374422460453e-15
    37   -8.355339789569e-16
    38    1.731297722694e-14
    39    1.258331277815e-15
    40   -1.984661870126e-15
    41    1.146715725505e-14
    42   -1.710078859845e-15
    43    4.032842318235e-14
    44    3.783951843998e-15
    45   -2.755630088497e-16
    46    5.676265100535e-03
    47    1.720595572867e-16
    48    1.590878228769e-16
    49    2.235243104905e-15
    50   -1.403694283606e-14
    51    1.989245655983e-15
    52   -4.979190437701e-14
    53   -4.611211823117e-15
    54    2.146808924045e-16
    55   -2.201587212057e-15
    56    2.995375322057e-16
    57   -8.098850666286e-15
    58   -8.606367387643e-16
    59    1.591301241964e-16
    60    1.435076196424e-16
    61    1.748892117645e-16
    62    1.444549606924e-15
    63    1.794132081892e-16
    64    5.917521215690e-16
    65    1.427774350250e-14
    66   -3.604783963578e-16
    67   -4.088129032156e-15
    68   -1.078223558315e-15
    69    3.440832970331e-15
    70    3.836681416010e-15
    71    4.216839986200e-16
    72    8.701115798708e-14
    73    3.921156086008e-15
    74    8.155084361184e-15
    75    8.365944586560e-16
    76    1.600240254388e-14
    77   -1.001805663329e-14
    78    3.697802637701e-16
    79    3.569676524844e-16
    80   -6.524685842770e-16
    81    1.317608024697e-15
    82    2.646309783903e-16
    83   -2.969921410675e-18
    84   -1.001188882854e-16
    85   -1.455052906783e-16
    86    1.692075605424e-18
    87    1.548620499263e-16
    88   -1.049593996560e-17
    89   -6.422641753651e-18
Sym=X
Ene= -0.955934
Spin=Alpha
Occup=1
     1   -1.029286564091e-18
     2    4.313724681580e-18
     3    1.974387068333e-16
     4   -6.687786166865e-16
     5    1.351769869040e-15
     6   -2.108163113386e-15
     7    3.444846130691e-15
     8   -2.004217928087e-15
     9    7.222167602837e-16
    10   -1.083145646467e-01
    11    5.778375000972e-18
    12    1.654245118010e-15
    13   -2.481740834904e-01
    14    1.631338912703e-16
    15   -1.343114358451e-15
    16    2.009296796740e-01
    17    2.546855714448e-16
    18   -3.612277442276e-15
    19    5.600292806003e-01
    20   -1.174746743648e-16
    21   -2.936331722887e-15
    22    3.884118262078e-01
    23   -4.471588572205e-16
    24   -2.589446778024e-16
    25    3.295426685754e-02
    26    1.430307050591e-15
    27    1.551344905757e-16
    28   -1.450152569325e-02
    29   -9.804210129597e-16
    30   -2.767696913917e-17
    31    4.734536492311e-17
    32    2.209723860732e-16
    33   -1.165788742931e-16
    34   -4.557171112019e-16
    35   -2.234184640702e-16
    36   -3.588852509914e-16
    37    9.669953033533e-16
    38   -5.624242237295e-16
    39    3.194884447930e-16
    40   -1.853587884831e-15
    41   -2.502932445856e-15
    42    1.046641157682e-15
    43   -3.505693555577e-15
    44    9.879619802271e-16
    45    2.732431077068e-16
    46   -7.789362617913e-17
    47    5.676265101176e-03
    48    1.290322493550e-15
    49    2.115437166142e-15
    50    1.839432225274e-15
    51   -1.081044911884e-15
    52    2.492259771269e-15
    53   -1.398113503116e-15
    54   -1.577027275909e-15
    55    1.231150644298e-15
    56    1.326842387350e-15
    57    2.373465822362e-15
    58   -4.316922193247e-16
    59   -9.560507228883e-16
    60    6.807748710955e-16
    61    1.190645638636e-16
    62   -9.276731653294e-16
    63   -2.255723817690e-16
    64    1.614944617553e-16
    65   -3.550515177869e-18
    66    1.602086181996e-14
    67   -1.357475012675e-17
    68   -5.045728236836e-17
    69   -3.054382557942e-18
    70    4.094013866518e-15
    71   -1.972276720785e-16
    72   -4.505298397711e-18
    73    9.424498349685e-14
    74    1.291553068288e-16
    75    8.473831627722e-18
    76   -4.986057900887e-17
    77    2.165050610630e-14
    78    1.635918730072e-17
    79    1.173559401299e-17
    80   -2.368226860076e-17
    81   -2.762458859960e-17
    82    1.766135638223e-17
    83    5.092783930361e-18
    84    1.938390691141e-18
    85   -1.117380408840e-16
    86    7.949843363717e-19
    87   -8.153450082066e-18
    88    1.134109391202e-19
    89   -1.233088214881e-17
Sym=X
Ene= -0.147397
Spin=Alpha
Occup=1
     1   -7.281983513724e-03
     2   -2.373940726321e-02
     3    5.108948527494e-02
     4    8.927624642889e-02
     5   -1.347607340602e-01
     6   -3.082451949751e-01
     7    4.760096434980e-02
     8    9.919001379490e-01
     9    1.269064083494e-16
    10   -4.271298296744e-17
    11    7.129498150712e-17
    12    2.793597210630e-16
    13    1.952496785557e-16
    14   -1.618226663195e-16
    15   -1.441303012467e-16
    16    6.332416069288e-17
    17    1.951686375528e-16
    18   -1.253502753661e-15
    19   -8.418837608423e-18
    20   -1.623233306668e-16
    21   -1.988987278944e-16
    22    1.629366092067e-16
    23    1.333158342071e-16
    24    7.210042193886e-15
    25   -1.057120287573e-15
    26    1.747677426438e-16
    27   -2.855313722182e-15
    28    1.063763389125e-15
    29    2.159003063597e-15
    30   -1.631577269166e-11
    31    1.188871568184e-15
    32    5.453943900518e-16
    33   -3.142467788467e-12
    34   -6.862060400624e-16
    35   -6.514837039590e-12
    36   -2.815767960216e-15
    37   -1.440220414024e-15
    38   -1.265430191232e-12
    39    5.285324227337e-16
    40    1.018872058070e-10
    41   -1.442951197248e-15
    42   -1.306276315086e-14
    43    1.956684411417e-11
    44   -6.317342503934e-15
    45    7.031392214749e-02
    46    2.803153187230e-15
    47   -1.496074371263e-15
    48   -2.045258063002e-15
    49   -8.861333590485e-11
    50    7.858417486994e-15
    51    9.672949197356e-15
    52   -1.702458906198e-11
    53    4.228993788689e-16
    54   -2.937998983489e-10
    55   -1.246482881296e-15
    56    1.689848471449e-14
    57   -5.652333704957e-11
    58    1.088735862480e-14
    59   -4.068384412314e-10
    60   -1.366042978617e-15
    61   -3.711746551616e-14
    62   -7.830248682231e-11
    63   -4.104610898486e-14
    64   -4.084650478613e-17
    65   -2.528222365919e-18
    66    2.713801451038e-16
    67   -1.952025609133e-16
    68   -1.211189421320e-16
    69   -1.814953141277e-17
    70    1.766207877128e-16
    71    1.253626845670e-15
    72   -9.220817737447e-17
    73    1.020195868062e-16
    74    7.045959973184e-16
    75   -1.031873493943e-16
    76    7.683181036793e-17
    77   -7.923332607104e-16
    78    2.345185518626e-13
    79    6.313875254050e-18
    80    1.422468394745e-16
    81    4.518943535030e-14
    82   -6.601129427304e-18
    83    1.257241175104e-16
    84    6.210274390552e-17
    85    3.704463464228e-16
    86   -5.684988508831e-17
    87    1.582793070470e-16
    88    3.860412606872e-19
    89    1.545639925011e-16
Sym=X
Ene= 0.008111
Spin=Alpha
Occup=0
     1    8.323579558731e-18
     2    2.632466805734e-17
     3   -4.608676678666e-17
     4   -1.614511558015e-16
     5    4.918043872397e-16
     6   -3.425916577820e-16
     7    5.018316164975e-16
     8   -1.389303859913e-15
     9    2.226383135961e-17
    10    1.752996512010e-16
    11    7.796540894023e-03
    12    4.768174261952e-17
    13    4.937642261911e-16
    14    1.808063239025e-02
    15   -2.713020701318e-17
    16   -1.572114015072e-16
    17   -1.701928907331e-02
    18   -1.994163633749e-16
    19   -1.735464999245e-15
    20   -4.214465158529e-02
    21    9.567121717898e-18
    22   -8.982883252472e-16
    23   -5.007750350594e-02
    24    6.831257861654e-16
    25   -1.396042972502e-15
    26    1.909681854148e-01
    27   -1.214865888274e-15
    28    3.731152766018e-14
    29    2.525807860310e-02
    30   -1.543118435062e-15
    31   -1.152746322186e-16
    32   -2.852476832267e-16
    33   -2.415433593726e-17
    34    1.386961009123e-15
    35   -3.874017464236e-15
    36    1.213788478731e-16
    37   -1.384688117141e-15
    38   -2.544294016264e-15
    39   -1.478885988492e-15
    40   -1.446395872772e-14
    41    5.936523476351e-15
    42   -1.205348971065e-14
    43   -4.785025441198e-15
    44   -7.395456806756e-16
    45    8.251964807739e-16
    46    8.650706830602e-16
    47   -3.280290420144e-14
    48    8.956446342812e-01
    49    1.061604652118e-14
    50   -2.826168145442e-15
    51    1.092607921611e-14
    52    4.631444480849e-15
    53    2.619271419233e-15
    54    9.132798069995e-15
    55   -7.710965474493e-15