/home/vladimir/qchem/bin/parallel.csh,  , N4.in, 1, 0, /home/vladimir/scratch/qchem8073/
MPIRUN in parallel.csh is mpirun
P4_RSHCOMMAND in parallel.csh is ssh
QCOUTFILE is stdout
Q-Chem machineFile is /home/vladimir/qchem/bin/mpi/machines 
Process 0 of 1 is on He - thread support 0
initial socket setup ...start
initial socket setup ...done 
now start server 0 ... 
He 127.0.1
Q-Chem Developer Version! Running on 127.0.1.*
                  Welcome to Q-Chem
     A Quantum Leap Into The Future Of Chemistry


 Q-Chem 4.4, Q-Chem, Inc., Pleasanton, CA (2016)

 Y. Shao,  Z. Gan,  E. Epifanovsky,  A. T. B. Gilbert,  M. Wormit,  
 J. Kussmann,  A. W. Lange,  A. Behn,  J. Deng,  X. Feng,  D. Ghosh,  
 M. Goldey,  P. R. Horn,  L. D. Jacobson,  I. Kaliman,  F.Rob,  
 R. Z. Khaliullin,  T. Kus,  A. Landau,  J. Liu,  E. I. Proynov,  Y. M. Rhee,  
 R. M. Richard,  M. A. Rohrdanz,  R. P. Steele,  E. J. Sundstrom,  
 H. L. Woodcock III,  P. M. Zimmerman,  D. Zuev,  B. Albrecht,  E. Alguire,  
 B. Austin,  S. A. Baeppler,  G. J. O. Beran,  Y. A. Bernard,  E. Berquist,  
 K. Brandhorst,  K. B. Bravaya,  S. T. Brown,  D. Casanova,  C.-M. Chang,  
 Y. Chen,  S. H. Chien,  K. D. Closser,  M. P. Coons,  D. L. Crittenden,  
 S. Dasgupta,  M. Diedenhofen,  R. A. DiStasio Jr.,  H. Do,  A. D. Dutoi,  
 R. G. Edgar,  P.-T. Fang,  S. Fatehi,  Q. Feng,  L. Fusti-Molnar,  
 A. Ghysels,  A. Golubeva-Zadorozhnaya,  J. Gomes,  A. Gunina,  
 M. W. D. Hanson-Heine,  P. H. P. Harbach,  A. W. Hauser,  J. E. Herr,  
 E. G. Hohenstein,  Z. C. Holden,  K. Hui,  T.-C. Jagau,  H. Ji,  B. Kaduk,  
 K. Khistyaev,  Jaehoon Kim,  Jihan Kim,  R. A. King,  P. Klunzinger,  
 K. Koh,  D. Kosenkov,  T. Kowalczyk,  C. M. Krauter,  A. Kunitsa,  
 K. U. Lao,  A. Laurent,  K. V. Lawler,  J. Lee,  D. Lefrancois,  S. Lehtola,  
 S. V. Levchenko,  C. Y. Lin,  Y.-S. Lin,  F. Liu,  E. Livshits,  
 R. C. Lochan,  A. Luenser,  P. Manohar,  S. F. Manzer,  S.-P. Mao,  Y. Mao,  
 N. Mardirossian,  A. V. Marenich,  L. A. Martinez-Martinez,  S. A. Maurer,  
 N. J. Mayhall,  J.-M. Mewes,  A. F. Morrison,  K. Nanda,  T. S. Nguyen-Beck,  
 C. M. Oana,  R. Olivares-Amaya,  D. P. O'Neill,  J. A. Parkhill,  
 T. M. Perrine,  R. Peverati,  P. A. Pieniazek,  F. Plasser,  A. Prociuk,  
 D. R. Rehn,  E. Rosta,  N. J. Russ,  N. Sergueev,  S. M. Sharada,  
 S. Sharma,  D. W. Small,  A. Sodt,  T. Stauch,  T. Stein,  D. Stuck,  
 Y.-C. Su,  A. J. W. Thom,  T. Tsuchimochi,  L. Vogt,  O. Vydrov,  T. Wang,  
 M. A. Watson,  J. Wenzel,  A. White,  C. F. Williams,  V. Vanovschi,  
 K. Yao,  S. Yeganeh,  S. R. Yost,  Z.-Q. You,  I. Y. Zhang,  X. Zhang,  
 Y. Zhao,  B. R. Brooks,  G. K. L. Chan,  D. M. Chipman,  C. J. Cramer,  
 W. A. Goddard III,  M. S. Gordon,  W. J. Hehre,  A. Klamt,  
 H. F. Schaefer III,  M. W. Schmidt,  C. D. Sherrill,  D. G. Truhlar,  
 A. Warshel,  X. Xu,  A. Aspuru-Guzik,  R. Baer,  A. T. Bell,  N. A. Besley,  
 J.-D. Chai,  A. Dreuw,  B. D. Dunietz,  T. R. Furlani,  S. R. Gwaltney,  
 C.-P. Hsu,  Y. Jung,  J. Kong,  D. S. Lambrecht,  W. Liang,  C. Ochsenfeld,  
 V. A. Rassolov,  L. V. Slipchenko,  J. E. Subotnik,  T. Van Voorhis,  
 J. M. Herbert,  A. I. Krylov,  P. M. W. Gill,  M. Head-Gordon

 Contributors to earlier versions of Q-Chem not listed above: 
 R. D. Adamson,  J. Baker,  E. F. C. Byrd,  A. K. Chakraborty,  C.-L. Cheng,  
 H. Dachsel,  R. J. Doerksen,  G. Hawkins,  A. Heyden,  S. Hirata,  
 G. Kedziora,  F. J. Keil,  C. Kelley,  P. P. Korambath,  W. Kurlancheek,  
 A. M. Lee,  M. S. Lee,  D. Liotard,  I. Lotan,  P. E. Maslen,  N. Nair,  
 D. Neuhauser,  R. Olson,  B. Peters,  J. Ritchie,  N. E. Schultz,  
 N. Shenvi,  A. C. Simmonett,  K. S. Thanthiriwatte,  Q. Wu,  W. Zhang

 Please cite Q-Chem as follows:
 Y. Shao et al., Mol. Phys. 113, 184-215 (2015)
 DOI: 10.1080/00268976.2014.952696

 Q-Chem 4.4.1 for Intel X86 EM64T Linux

 Parts of Q-Chem use Armadillo 5.200.1 (Boston Tea Smuggler).
 http://arma.sourceforge.net/

 Q-Chem begins on Sat May  6 08:46:48 2017  


Host: 0

     Scratch files written to /home/vladimir/scratch/qchem8073//
 Parallel job on  1  processors

Checking the input file for inconsistencies... 	...done.

--------------------------------------------------------------
User input:
--------------------------------------------------------------
$comment0
$end

$rem
SYMMETRY              off
BASIS                 cc-pVQZ
METHOD                HF
SCF_CONVERGENCE       8
MOLDEN_FORMAT         true
PRINT_ORBITALS        1000
$end

$molecule
   0 1
   N       0.5200      0.5300      0.5100
   N      -0.5200     -0.5200      0.5200
   N      -0.5200      0.5200     -0.5200
   N       0.5200     -0.5200     -0.5200
$end
--------------------------------------------------------------
 ----------------------------------------------------------------
             Standard Nuclear Orientation (Angstroms)
    I     Atom           X                Y                Z
 ----------------------------------------------------------------
    1      N      -0.6425116454    -0.0000000000    -0.6312616617
    2      N       0.7356992061     0.4245782221    -0.3080462814
    3      N      -0.3073581092     0.4245782221     0.7288873892
    4      N       0.2141705485    -0.8491564442     0.2104205539
 ----------------------------------------------------------------
 Molecular Point Group                 C1    NOp =  1
 Largest Abelian Subgroup              C1    NOp =  1
 Nuclear Repulsion Energy =   105.7779404621 hartrees
 There are       14 alpha and       14 beta electrons
 Requested basis set is cc-pVQZ
 There are 60 shells and 220 basis functions

 Total QAlloc Memory Limit   2000 MB
 Mega-Array Size        61 MB
 MEM_STATIC part        62 MB

                       Distance Matrix (Angstroms)
             N (  1)   N (  2)   N (  3)
   N (  2)  1.477904
   N (  3)  1.463762  1.470782
   N (  4)  1.470850  1.470782  1.470782

 A cutoff of  1.0D-11 yielded   1830 shell pairs
 There are     24790 function pairs (     40348 Cartesian)

 -------------------------------------------------------
 OpenMP Integral Computing Module                       
 Release: version 1.0, May 2013, Q-Chem Inc. Pittsburgh 
 -------------------------------------------------------
 Integral Job Info:
 Integral job number is                      11
 Integral operator is                         1
 short-range coefficients                     0
 long-range coefficients              100000000
 Omega coefficients                           0
 if combine SR and LR in K                    0
 Integral screening is                        0
 Integral computing path is                   2
 max size of driver memory is           3200000
 size of driver memory is               1704330
 size of scratch memory is             18410652
 max col of scratch BK array              50625
 max len of scratch array in speh3         2114
 max len of scratch index in speh4           50
 max int batch size is                      520
 min int batch size is                       52
 fixed nKL is                                52
 max L of basis functions is                  4
 order of int derivative is                   0
 number of shells is                         60
 number of basis is                         280
 number of cartesian basis is               280
 number of contracted shell pairs          1830
 number of primitive shell pairs           6794
 maxK2 (contraction) of shell pair           81
 max number of K2 of shell pair               1
 max number of CS2 of shell pair            144
 max number of PS2 of shell pair            972
 mem total for path MDJ                  180202
 -------------------------------------------------------
 Smallest overlap matrix eigenvalue = 6.46E-04

 Scale SEOQF with 1.000000e+00/1.000000e+00/1.000000e+00

 Standard Electronic Orientation quadrupole field applied
 Nucleus-field energy     =     0.0000000001 hartrees
 Guess from superposition of atomic densities
 Warning:  Energy on first SCF cycle will be non-variational
 A restricted Hartree-Fock SCF calculation will be
 performed using Pulay DIIS extrapolation
 SCF converges when DIIS error is below 1.0E-08
 ---------------------------------------
  Cycle       Energy         DIIS Error
 ---------------------------------------
    1    -218.5205753599      2.95E-02
    2    -217.5161541266      4.41E-03
    3    -217.5906628304      1.88E-03
    4    -217.6055824785      2.28E-04
    5    -217.6064095773      6.48E-05
    6    -217.6064935043      1.62E-05
    7    -217.6064962592      9.69E-06
    8    -217.6064967768      1.04E-06
    9    -217.6064967861      1.54E-07
   10    -217.6064967864      7.24E-08
   11    -217.6064967864      2.88E-08
   12    -217.6064967866      7.70E-09 Convergence criterion met
 ---------------------------------------
 SCF time:  CPU 489.42 s  wall 492.33 s
 SCF   energy in the final basis set = -217.6064967866
 Total energy in the final basis set = -217.6064967866

 --------------------------------------------------------------

                    Orbital Energies (a.u.)
 --------------------------------------------------------------

 Alpha MOs
 -- Occupied --
-15.749 -15.748 -15.748 -15.748  -1.652  -1.044  -1.041  -1.037
 -0.686  -0.570  -0.569  -0.568  -0.534  -0.529
 -- Virtual --
  0.188   0.191   0.191   0.193   0.194   0.196   0.351   0.414
  0.415   0.417   0.456   0.457   0.513   0.515   0.516   0.558
  0.558   0.558   0.590   0.774   0.775   0.775   0.937   0.939
  0.941   1.186   1.189   1.213   1.269   1.272   1.274   1.308
  1.308   1.309   1.396   1.398   1.410   1.410   1.410   1.411
  1.411   1.411   2.131   2.153   2.154   2.154   2.237   2.238
  2.273   2.352   2.353   2.354   2.590   2.592   2.595   2.705
  2.705   2.710   2.712   2.714   2.851   2.856   2.858   2.861
  2.992   2.993   2.994   3.029   3.036   3.042   3.090   3.129
  3.131   3.133   3.146   3.146   3.146   3.209   3.210   3.241
  3.243   3.245   3.491   3.493   3.494   3.508   3.881   3.883
  3.884   4.039   4.040   4.068   4.175   4.181   4.183   4.185
  4.192   4.227   4.233   4.239   5.090   5.098   5.106   5.612
  5.620   5.629   6.067   6.454   6.457   6.461   6.547   6.736
  6.740   6.744   6.942   6.944   6.946   7.008   7.016   7.166
  7.167   7.167   7.350   7.377   7.723   7.729   7.735   8.030
  8.043   8.057   8.226   8.226   8.289   8.294   8.298   8.490
  8.498   8.505   8.526   8.529   8.586   8.593   8.598   8.624
  8.627   8.630   8.712   8.831   8.917   8.922   8.926   8.977
  8.982   8.988   9.060   9.061   9.063   9.192   9.194   9.196
  9.275   9.275   9.280   9.284   9.288   9.335   9.336   9.339
  9.342   9.344   9.346   9.347   9.351   9.351   9.574   9.674
  9.687   9.699   9.815   9.853   9.860   9.867  10.462  10.473
 10.483  10.742  10.778  10.787  10.811  10.820  10.834  11.348
 11.356  11.361  11.387  11.404  11.892  11.900  11.909  12.712
 12.728  12.744  30.797  32.803  32.809  32.816
 --------------------------------------------------------------


                        RESTRICTED (RHF) MOLECULAR ORBITAL COEFFICIENTS
                         1         2         3         4         5         6
 eigenvalues:        -15.749   -15.748   -15.748   -15.748    -1.652    -1.044
   1  N 1   s        0.50016  -0.29215   0.80183  -0.08778  -0.00539   0.00102
   2  N 1   s        0.00042  -0.00019   0.00052  -0.00005   0.14109  -0.18172
   3  N 1   s        0.00852  -0.00487   0.01335  -0.00146   0.10796  -0.14257
   4  N 1   s       -0.00187   0.00084  -0.00230   0.00025   0.19823  -0.31090
   5  N 1   s        0.00073  -0.00180   0.00507  -0.00059   0.04202  -0.14708
   6  N 1   px       0.00111  -0.00065   0.00171  -0.00016   0.02187   0.02562
   7  N 1   py       0.00000   0.00003   0.00002   0.00004   0.00000  -0.00695
   8  N 1   pz       0.00110  -0.00059   0.00171  -0.00021   0.02202  -0.02251
   9  N 1   px      -0.00028   0.00019  -0.00067   0.00012   0.04256   0.04828
  10  N 1   py       0.00000   0.00006   0.00003   0.00007   0.00001  -0.01349
  11  N 1   pz      -0.00028   0.00028  -0.00064   0.00003   0.04290  -0.04501
  12  N 1   px       0.00020  -0.00032   0.00112  -0.00020   0.04953   0.04806
  13  N 1   py      -0.00000  -0.00008  -0.00004  -0.00010   0.00001  -0.01650
  14  N 1   pz       0.00020  -0.00045   0.00106  -0.00006   0.04976  -0.06677
  15  N 1   px       0.00024  -0.00022   0.00117  -0.00031   0.00779   0.00548
  16  N 1   py      -0.00000  -0.00023  -0.00011  -0.00026   0.00000  -0.00288
  17  N 1   pz       0.00022  -0.00058   0.00107   0.00005   0.00777  -0.01493
  18  N 1   d 1     -0.00000   0.00001   0.00001   0.00002  -0.00001  -0.00001
  19  N 1   d 2      0.00000   0.00002   0.00001   0.00001   0.00001  -0.00071
  20  N 1   d 3      0.00002   0.00002   0.00002  -0.00002   0.00060  -0.00205
  21  N 1   d 4      0.00007  -0.00002   0.00004  -0.00001   0.00200   0.00043
  22  N 1   d 5      0.00003  -0.00002   0.00002   0.00001   0.00099   0.00135
  23  N 1   d 1     -0.00000  -0.00003  -0.00001  -0.00001  -0.00007  -0.00029
  24  N 1   d 2      0.00000  -0.00000  -0.00001  -0.00003   0.00007  -0.00387
  25  N 1   d 3     -0.00002  -0.00003   0.00003   0.00003   0.00298  -0.01287
  26  N 1   d 4     -0.00008  -0.00004   0.00009  -0.00002   0.01003  -0.00053
  27  N 1   d 5     -0.00004   0.00001   0.00005  -0.00000   0.00496   0.00646
  28  N 1   d 1     -0.00000  -0.00003  -0.00001  -0.00001  -0.00005   0.00064
  29  N 1   d 2      0.00000  -0.00000  -0.00001  -0.00003   0.00006  -0.00437
  30  N 1   d 3      0.00007  -0.00007   0.00017   0.00001   0.00359  -0.01307
  31  N 1   d 4      0.00024  -0.00023   0.00062  -0.00008   0.01241  -0.00506
  32  N 1   d 5      0.00012  -0.00009   0.00033  -0.00004   0.00620   0.00328
  33  N 1   f 1      0.00000  -0.00001   0.00001  -0.00002   0.00008  -0.00004
  34  N 1   f 2     -0.00000  -0.00001  -0.00002  -0.00001  -0.00009  -0.00007
  35  N 1   f 3      0.00000  -0.00002   0.00001   0.00000   0.00009  -0.00046
  36  N 1   f 4      0.00000  -0.00002  -0.00000   0.00000  -0.00004  -0.00091
  37  N 1   f 5     -0.00002  -0.00000  -0.00002   0.00002   0.00020  -0.00043
  38  N 1   f 6     -0.00002   0.00001  -0.00002  -0.00000   0.00019   0.00065
  39  N 1   f 7     -0.00001   0.00000  -0.00001  -0.00001   0.00007   0.00050
  40  N 1   f 1      0.00004  -0.00003   0.00001   0.00001   0.00133  -0.00036
  41  N 1   f 2     -0.00004   0.00000  -0.00002  -0.00001  -0.00135  -0.00002
  42  N 1   f 3      0.00004   0.00002   0.00002  -0.00003   0.00114  -0.00182
  43  N 1   f 4      0.00000   0.00003  -0.00002   0.00003  -0.00066  -0.00289
  44  N 1   f 5      0.00001  -0.00005   0.00010  -0.00001   0.00251  -0.00281
  45  N 1   f 6      0.00001  -0.00003   0.00012  -0.00001   0.00262   0.00096
  46  N 1   f 7      0.00000   0.00000   0.00006   0.00001   0.00106   0.00125
  47  N 1   g 1      0.00001  -0.00001   0.00001  -0.00001   0.00053  -0.00018
  48  N 1   g 2     -0.00000  -0.00000  -0.00001  -0.00001  -0.00009  -0.00012
  49  N 1   g 3     -0.00001  -0.00001  -0.00001  -0.00000  -0.00026   0.00010
  50  N 1   g 4      0.00002  -0.00001   0.00002  -0.00000   0.00061  -0.00054
  51  N 1   g 5      0.00001  -0.00000  -0.00000   0.00000   0.00003  -0.00032
  52  N 1   g 6     -0.00000  -0.00001  -0.00000   0.00001   0.00000  -0.00050
  53  N 1   g 7     -0.00001  -0.00001  -0.00000   0.00000  -0.00004   0.00023
  54  N 1   g 8     -0.00001   0.00001   0.00000  -0.00000  -0.00004   0.00042
  55  N 1   g 9     -0.00000   0.00000  -0.00000  -0.00001  -0.00002   0.00025
  56  N 2   s        0.47544  -0.15130  -0.26220   0.81761  -0.00535  -0.00111
  57  N 2   s        0.00040  -0.00010  -0.00017   0.00053   0.14014   0.19448
  58  N 2   s        0.00810  -0.00252  -0.00437   0.01361   0.10725   0.15259
  59  N 2   s       -0.00178   0.00044   0.00077  -0.00235   0.19700   0.33291
  60  N 2   s        0.00056  -0.00090  -0.00162   0.00509   0.04169   0.15757
  61  N 2   px      -0.00121   0.00036   0.00061  -0.00201  -0.02502   0.02052
  62  N 2   py      -0.00070   0.00025   0.00040  -0.00114  -0.01450  -0.02215
  63  N 2   pz       0.00051  -0.00012  -0.00030   0.00084   0.01070   0.01079
  64  N 2   px       0.00030  -0.00015  -0.00030   0.00075  -0.04871   0.03810
  65  N 2   py       0.00017  -0.00001  -0.00010   0.00047  -0.02824  -0.04390
  66  N 2   pz      -0.00013   0.00012   0.00004  -0.00033   0.02085   0.02163
  67  N 2   px      -0.00019   0.00024   0.00048  -0.00124  -0.05661   0.03287
  68  N 2   py      -0.00011   0.00003   0.00017  -0.00077  -0.03281  -0.06231
  69  N 2   pz       0.00008  -0.00019  -0.00007   0.00054   0.02416   0.03270
  70  N 2   px      -0.00022   0.00028   0.00061  -0.00123  -0.00885   0.00206
  71  N 2   py      -0.00013  -0.00013   0.00007  -0.00085  -0.00512  -0.01325
  72  N 2   pz       0.00009  -0.00034   0.00006   0.00058   0.00376   0.00747
  73  N 2   d 1      0.00005  -0.00002  -0.00001   0.00003   0.00152   0.00019
  74  N 2   d 2     -0.00002   0.00000   0.00002  -0.00001  -0.00065  -0.00090
  75  N 2   d 3     -0.00003   0.00002  -0.00000  -0.00002  -0.00074   0.00032
  76  N 2   d 4     -0.00004  -0.00002   0.00002  -0.00002  -0.00113  -0.00010
  77  N 2   d 5      0.00003   0.00001   0.00002   0.00003   0.00086  -0.00218
  78  N 2   d 1     -0.00006   0.00002  -0.00001   0.00008   0.00759   0.00378
  79  N 2   d 2      0.00003   0.00003  -0.00001  -0.00003  -0.00325  -0.00633
  80  N 2   d 3      0.00003  -0.00000   0.00004  -0.00002  -0.00373   0.00088
  81  N 2   d 4      0.00005   0.00002   0.00001  -0.00005  -0.00567  -0.00240
  82  N 2   d 5     -0.00004  -0.00003  -0.00003   0.00003   0.00434  -0.01131
  83  N 2   d 1      0.00017  -0.00006  -0.00015   0.00050   0.00938   0.00669
  84  N 2   d 2     -0.00007   0.00006   0.00004  -0.00021  -0.00398  -0.00759
  85  N 2   d 3     -0.00008   0.00003   0.00011  -0.00023  -0.00459  -0.00201
  86  N 2   d 4     -0.00012   0.00008   0.00010  -0.00035  -0.00693  -0.00531
  87  N 2   d 5      0.00009  -0.00007  -0.00011   0.00027   0.00538  -0.00838
  88  N 2   f 1      0.00002  -0.00000   0.00001   0.00002  -0.00020   0.00064
  89  N 2   f 2     -0.00001   0.00000   0.00001  -0.00001   0.00015   0.00021
  90  N 2   f 3     -0.00000   0.00000  -0.00000   0.00001   0.00013   0.00006
  91  N 2   f 4      0.00001   0.00000  -0.00001   0.00000  -0.00018  -0.00013
  92  N 2   f 5     -0.00001   0.00002  -0.00000  -0.00001  -0.00001  -0.00044
  93  N 2   f 6     -0.00001  -0.00002   0.00001  -0.00002   0.00003  -0.00058
  94  N 2   f 7     -0.00000   0.00001   0.00002   0.00000  -0.00004   0.00083
  95  N 2   f 1     -0.00001   0.00001   0.00002  -0.00012  -0.00270   0.00087
  96  N 2   f 2      0.00000  -0.00003  -0.00002   0.00008   0.00186   0.00183
  97  N 2   f 3      0.00004   0.00001  -0.00003   0.00004   0.00182   0.00075
  98  N 2   f 4     -0.00002   0.00003   0.00004  -0.00007  -0.00220  -0.00147
  99  N 2   f 5     -0.00003  -0.00001  -0.00003   0.00001  -0.00030  -0.00134
 100  N 2   f 6     -0.00003   0.00001  -0.00002   0.00003   0.00018  -0.00164
 101  N 2   f 7     -0.00002   0.00002   0.00001  -0.00000  -0.00067   0.00284
 102  N 2   g 1     -0.00000  -0.00000  -0.00001   0.00001   0.00024  -0.00042
 103  N 2   g 2      0.00002   0.00000  -0.00001   0.00001   0.00025   0.00042
 104  N 2   g 3     -0.00001  -0.00001   0.00001  -0.00001  -0.00024   0.00010
 105  N 2   g 4      0.00001   0.00000  -0.00001   0.00002   0.00044   0.00042
 106  N 2   g 5     -0.00001   0.00001  -0.00001  -0.00001  -0.00020  -0.00017
 107  N 2   g 6     -0.00001  -0.00000   0.00000  -0.00000  -0.00016  -0.00031
 108  N 2   g 7      0.00001  -0.00001   0.00000   0.00001   0.00038   0.00036
 109  N 2   g 8      0.00001   0.00001   0.00001   0.00001   0.00026   0.00045
 110  N 2   g 9      0.00001  -0.00001  -0.00001   0.00001   0.00027  -0.00005
 111  N 3   s        0.51649   0.83255  -0.03614  -0.15788  -0.00542   0.00060
 112  N 3   s        0.00043   0.00054  -0.00003  -0.00010   0.14204  -0.10717
 113  N 3   s        0.00880   0.01387  -0.00060  -0.00263   0.10865  -0.08405
 114  N 3   s       -0.00193  -0.00240   0.00010   0.00045   0.19947  -0.18340
 115  N 3   s        0.00084   0.00530  -0.00021  -0.00104   0.04235  -0.08676
 116  N 3   px       0.00055   0.00086  -0.00008  -0.00013   0.01050   0.04170
 117  N 3   py      -0.00076  -0.00117   0.00007   0.00027  -0.01476   0.00186
 118  N 3   pz      -0.00132  -0.00204   0.00006   0.00037  -0.02545   0.01463
 119  N 3   px      -0.00014  -0.00032  -0.00006   0.00011   0.02043   0.08044
 120  N 3   py       0.00020   0.00047   0.00001  -0.00001  -0.02873   0.00414
 121  N 3   pz       0.00034   0.00077  -0.00008  -0.00018  -0.04956   0.02932
 122  N 3   px       0.00010   0.00054   0.00008  -0.00018   0.02380   0.09576
 123  N 3   py      -0.00014  -0.00078  -0.00001   0.00004  -0.03339   0.00962
 124  N 3   pz      -0.00025  -0.00129   0.00012   0.00029  -0.05757   0.04377
 125  N 3   px       0.00013   0.00054   0.00027  -0.00030   0.00376   0.01607
 126  N 3   py      -0.00017  -0.00084  -0.00009  -0.00014  -0.00525   0.00292
 127  N 3   pz      -0.00029  -0.00132   0.00024   0.00036  -0.00905   0.00982
 128  N 3   d 1     -0.00002  -0.00001   0.00001   0.00001  -0.00064  -0.00103
 129  N 3   d 2      0.00005   0.00003  -0.00000  -0.00002   0.00155  -0.00057
 130  N 3   d 3      0.00004   0.00002   0.00002   0.00001   0.00116  -0.00156
 131  N 3   d 4     -0.00004  -0.00002   0.00002  -0.00001  -0.00109  -0.00251
 132  N 3   d 5     -0.00001  -0.00000   0.00000   0.00002  -0.00022   0.00072
 133  N 3   d 1      0.00003  -0.00003  -0.00003   0.00003  -0.00321  -0.00576
 134  N 3   d 2     -0.00006   0.00008   0.00001   0.00001   0.00778  -0.00467
 135  N 3   d 3     -0.00004   0.00006  -0.00003  -0.00003   0.00576  -0.01005
 136  N 3   d 4      0.00004  -0.00005  -0.00000   0.00002  -0.00547  -0.01347
 137  N 3   d 5      0.00001  -0.00001   0.00003  -0.00001  -0.00106   0.00468
 138  N 3   d 1     -0.00008  -0.00021  -0.00001   0.00005  -0.00402  -0.00327
 139  N 3   d 2      0.00020   0.00051  -0.00001  -0.00007   0.00965  -0.00654
 140  N 3   d 3      0.00015   0.00036  -0.00004  -0.00009   0.00713  -0.01091
 141  N 3   d 4     -0.00014  -0.00036   0.00001   0.00008  -0.00686  -0.01156
 142  N 3   d 5     -0.00003  -0.00007   0.00002  -0.00000  -0.00133   0.00364
 143  N 3   f 1      0.00000   0.00001   0.00000   0.00000   0.00007  -0.00030
 144  N 3   f 2     -0.00002  -0.00001   0.00001   0.00001   0.00013   0.00074
 145  N 3   f 3      0.00002   0.00001   0.00001  -0.00000  -0.00024   0.00052
 146  N 3   f 4      0.00000   0.00000   0.00002   0.00000  -0.00003   0.00085
 147  N 3   f 5     -0.00001  -0.00002   0.00001  -0.00001   0.00009   0.00090
 148  N 3   f 6     -0.00001  -0.00001  -0.00000   0.00002  -0.00004  -0.00053
 149  N 3   f 7      0.00000  -0.00001  -0.00001  -0.00001  -0.00011  -0.00005
 150  N 3   f 1      0.00004   0.00001  -0.00003   0.00001   0.00107  -0.00113
 151  N 3   f 2      0.00001   0.00008   0.00001  -0.00003   0.00182   0.00207
 152  N 3   f 3     -0.00003  -0.00013  -0.00001   0.00001  -0.00317   0.00268
 153  N 3   f 4     -0.00000  -0.00001   0.00001   0.00003  -0.00034   0.00317
 154  N 3   f 5     -0.00001   0.00008  -0.00003  -0.00001   0.00138   0.00270
 155  N 3   f 6     -0.00004   0.00001  -0.00002   0.00000  -0.00064  -0.00196
 156  N 3   f 7     -0.00004  -0.00003   0.00000   0.00003  -0.00163   0.00010
 157  N 3   g 1      0.00001   0.00002  -0.00001  -0.00000   0.00051  -0.00005
 158  N 3   g 2     -0.00001  -0.00001   0.00000  -0.00001  -0.00013   0.00037
 159  N 3   g 3      0.00001   0.00000  -0.00000  -0.00000   0.00010  -0.00055
 160  N 3   g 4      0.00000   0.00001  -0.00001  -0.00000   0.00032  -0.00049
 161  N 3   g 5      0.00000  -0.00001  -0.00001  -0.00000  -0.00010  -0.00036
 162  N 3   g 6      0.00001   0.00001   0.00000   0.00001   0.00032  -0.00028
 163  N 3   g 7      0.00002   0.00001   0.00001  -0.00001   0.00047   0.00018
 164  N 3   g 8     -0.00000   0.00000   0.00001   0.00000   0.00008  -0.00007
 165  N 3   g 9      0.00000   0.00000  -0.00000  -0.00001   0.00013  -0.00024
 166  N 4   s        0.49310  -0.42986  -0.52266  -0.53390  -0.00539  -0.00055
 167  N 4   s        0.00042  -0.00028  -0.00034  -0.00034   0.14108   0.09591
 168  N 4   s        0.00840  -0.00716  -0.00871  -0.00888   0.10794   0.07519
 169  N 4   s       -0.00185   0.00125   0.00151   0.00152   0.19822   0.16438
 170  N 4   s        0.00068  -0.00266  -0.00327  -0.00341   0.04202   0.07787
 171  N 4   px      -0.00037   0.00030   0.00034   0.00042  -0.00741   0.04357
 172  N 4   py       0.00145  -0.00121  -0.00150  -0.00151   0.02926   0.00851
 173  N 4   pz      -0.00036   0.00035   0.00035   0.00036  -0.00721  -0.00425
 174  N 4   px       0.00009  -0.00013  -0.00020  -0.00008  -0.01443   0.08419
 175  N 4   py      -0.00037   0.00048   0.00054   0.00059   0.05697   0.01746
 176  N 4   pz       0.00009  -0.00003  -0.00018  -0.00017  -0.01405  -0.00847
 177  N 4   px      -0.00006   0.00021   0.00032   0.00014  -0.01675   0.10171
 178  N 4   py       0.00025  -0.00078  -0.00090  -0.00099   0.06619   0.02975
 179  N 4   pz      -0.00006   0.00007   0.00029   0.00028  -0.01634  -0.01249
 180  N 4   px      -0.00006   0.00025   0.00048  -0.00001  -0.00262   0.01747
 181  N 4   py       0.00029  -0.00085  -0.00087  -0.00105   0.01037   0.00746
 182  N 4   pz      -0.00008  -0.00011   0.00039   0.00035  -0.00257  -0.00276
 183  N 4   d 1     -0.00003   0.00000  -0.00000   0.00003  -0.00090   0.00288
 184  N 4   d 2     -0.00003   0.00003   0.00000   0.00000  -0.00088  -0.00058
 185  N 4   d 3     -0.00003   0.00000   0.00002   0.00001  -0.00097  -0.00013
 186  N 4   d 4      0.00001  -0.00001   0.00001  -0.00001   0.00022  -0.00106
 187  N 4   d 5     -0.00006   0.00001   0.00003   0.00001  -0.00166  -0.00095
 188  N 4   d 1      0.00004   0.00002   0.00005   0.00000  -0.00452   0.01622
 189  N 4   d 2      0.00004  -0.00001   0.00004   0.00003  -0.00439  -0.00396
 190  N 4   d 3      0.00004   0.00005   0.00002   0.00001  -0.00490  -0.00126
 191  N 4   d 4     -0.00001  -0.00001   0.00000  -0.00001   0.00111  -0.00578
 192  N 4   d 5      0.00007   0.00004   0.00003   0.00007  -0.00832  -0.00718
 193  N 4   d 1     -0.00011   0.00015   0.00020   0.00016  -0.00559   0.01365
 194  N 4   d 2     -0.00010   0.00012   0.00020   0.00019  -0.00544  -0.00527
 195  N 4   d 3     -0.00011   0.00018   0.00019   0.00019  -0.00601  -0.00336
 196  N 4   d 4      0.00003  -0.00004  -0.00004  -0.00005   0.00138  -0.00605
 197  N 4   d 5     -0.00020   0.00028   0.00032   0.00037  -0.01032  -0.00790
 198  N 4   f 1      0.00002  -0.00000  -0.00002  -0.00000  -0.00014  -0.00061
 199  N 4   f 2     -0.00001   0.00002  -0.00001   0.00002   0.00000  -0.00076
 200  N 4   f 3      0.00001  -0.00000  -0.00001  -0.00000  -0.00013  -0.00003
 201  N 4   f 4     -0.00001   0.00001  -0.00001  -0.00001   0.00018   0.00018
 202  N 4   f 5     -0.00000   0.00000   0.00001   0.00001  -0.00006  -0.00025
 203  N 4   f 6     -0.00001   0.00002   0.00001   0.00000   0.00005   0.00038
 204  N 4   f 7     -0.00001  -0.00001  -0.00000   0.00002   0.00018  -0.00125
 205  N 4   f 1     -0.00001   0.00004   0.00004   0.00008  -0.00197  -0.00273
 206  N 4   f 2     -0.00002  -0.00003   0.00001  -0.00003  -0.00008  -0.00260
 207  N 4   f 3     -0.00000   0.00006   0.00004   0.00003  -0.00161  -0.00055
 208  N 4   f 4      0.00004  -0.00005  -0.00005  -0.00004   0.00246   0.00110
 209  N 4   f 5     -0.00004   0.00000  -0.00001   0.00001  -0.00091  -0.00090
 210  N 4   f 6     -0.00002  -0.00002  -0.00005  -0.00003   0.00066   0.00170
 211  N 4   f 7      0.00002  -0.00003  -0.00007  -0.00006   0.00240  -0.00393
 212  N 4   g 1     -0.00000  -0.00001  -0.00001   0.00000   0.00022  -0.00052
 213  N 4   g 2     -0.00001   0.00001   0.00001  -0.00000  -0.00028   0.00010
 214  N 4   g 3     -0.00001  -0.00000   0.00001   0.00001  -0.00036  -0.00025
 215  N 4   g 4      0.00000   0.00000  -0.00001  -0.00001   0.00034   0.00023
 216  N 4   g 5     -0.00001   0.00000   0.00001   0.00001  -0.00030  -0.00004
 217  N 4   g 6      0.00001  -0.00001  -0.00000  -0.00000   0.00015   0.00039
 218  N 4   g 7      0.00000  -0.00001   0.00000  -0.00001   0.00020  -0.00007
 219  N 4   g 8      0.00002  -0.00001  -0.00000  -0.00001   0.00044   0.00049
 220  N 4   g 9     -0.00001   0.00000   0.00001  -0.00001  -0.00013   0.00044
                         7         8         9        10        11        12
 eigenvalues:         -1.041    -1.037    -0.686    -0.570    -0.569    -0.568
   1  N 1   s       -0.00028   0.00099  -0.00184  -0.00241   0.00260  -0.00241
   2  N 1   s        0.05148  -0.18125  -0.07604  -0.08083   0.08617  -0.07912
   3  N 1   s        0.04038  -0.14214  -0.06645  -0.07180   0.07659  -0.07037
   4  N 1   s        0.08827  -0.31134  -0.14568  -0.14492   0.15409  -0.14108
   5  N 1   s        0.04200  -0.14895  -0.12833  -0.08610   0.09137  -0.08346
   6  N 1   px      -0.00049  -0.02157   0.05272   0.00311  -0.03953   0.07062
   7  N 1   py      -0.04720  -0.00644  -0.00000  -0.02831  -0.05512  -0.03093
   8  N 1   pz      -0.00067   0.02657   0.05186   0.07285  -0.04049   0.00195
   9  N 1   px      -0.00054  -0.04313   0.09967   0.00396  -0.07344   0.13308
  10  N 1   py      -0.09145  -0.01246  -0.00000  -0.05414  -0.10543  -0.05918
  11  N 1   pz      -0.00091   0.05009   0.09805   0.13737  -0.07533   0.00174
  12  N 1   px       0.00253  -0.06523   0.12349   0.00995  -0.10332   0.18264
  13  N 1   py      -0.11284  -0.01551  -0.00000  -0.07226  -0.14058  -0.07884
  14  N 1   pz       0.00228   0.05010   0.12118   0.18772  -0.10555   0.00742
  15  N 1   px       0.00126  -0.01474   0.05317   0.02555  -0.06387   0.09349
  16  N 1   py      -0.02017  -0.00285  -0.00000  -0.02851  -0.05562  -0.03126
  17  N 1   pz       0.00133   0.00599   0.05225   0.09568  -0.06472   0.02399
  18  N 1   d 1     -0.00238  -0.00065   0.00000  -0.00071  -0.00168  -0.00120
  19  N 1   d 2     -0.00237   0.00002  -0.00000  -0.00107  -0.00179  -0.00075
  20  N 1   d 3     -0.00034   0.00217   0.00083   0.00210   0.00001  -0.00172
  21  N 1   d 4      0.00021   0.00051   0.00296   0.00029  -0.00053   0.00022
  22  N 1   d 5     -0.00055  -0.00104   0.00149  -0.00076   0.00007   0.00135
  23  N 1   d 1     -0.01409  -0.00360   0.00003  -0.00348  -0.00965  -0.00746
  24  N 1   d 2     -0.01400  -0.00022  -0.00003  -0.00683  -0.01025  -0.00363
  25  N 1   d 3     -0.00148   0.01202   0.00439   0.01242   0.00036  -0.00939
  26  N 1   d 4      0.00188  -0.00018   0.01572   0.00187  -0.00411   0.00157
  27  N 1   d 5     -0.00245  -0.00773   0.00795  -0.00376   0.00085   0.00843
  28  N 1   d 1     -0.01281  -0.00426   0.00001  -0.00305  -0.01000  -0.00837
  29  N 1   d 2     -0.01272   0.00075  -0.00001  -0.00774  -0.01075  -0.00314
  30  N 1   d 3     -0.00173   0.00954   0.00545   0.01443  -0.00051  -0.00832
  31  N 1   d 4      0.00395  -0.00474   0.01959   0.00600  -0.00944   0.00575
  32  N 1   d 5     -0.00293  -0.00963   0.00991  -0.00136  -0.00076   0.01135
  33  N 1   f 1     -0.00077  -0.00042  -0.00008  -0.00008  -0.00079  -0.00033
  34  N 1   f 2     -0.00135  -0.00006   0.00008  -0.00072  -0.00089  -0.00074
  35  N 1   f 3     -0.00059   0.00007  -0.00006  -0.00025  -0.00068   0.00001
  36  N 1   f 4     -0.00028   0.00064  -0.00023   0.00094   0.00005  -0.00061
  37  N 1   f 5      0.00003   0.00107   0.00081   0.00041   0.00028  -0.00108
  38  N 1   f 6     -0.00016   0.00000   0.00087  -0.00062   0.00039   0.00001
  39  N 1   f 7     -0.00034  -0.00031   0.00036  -0.00046   0.00027   0.00032
  40  N 1   f 1     -0.00273  -0.00177  -0.00006   0.00056  -0.00279  -0.00159
  41  N 1   f 2     -0.00491   0.00001   0.00005  -0.00257  -0.00277  -0.00260
  42  N 1   f 3     -0.00205   0.00006  -0.00004  -0.00156  -0.00241   0.00103
  43  N 1   f 4     -0.00112   0.00266  -0.00135   0.00328   0.00133  -0.00183
  44  N 1   f 5      0.00048   0.00262   0.00468   0.00223  -0.00052  -0.00273
  45  N 1   f 6     -0.00021  -0.00137   0.00501  -0.00087   0.00032   0.00124
  46  N 1   f 7     -0.00107  -0.00169   0.00207  -0.00067   0.00120   0.00198
  47  N 1   g 1     -0.00022  -0.00053  -0.00001   0.00017  -0.00052  -0.00007
  48  N 1   g 2     -0.00066   0.00004  -0.00000  -0.00018  -0.00057  -0.00057
  49  N 1   g 3     -0.00061   0.00006   0.00001  -0.00066  -0.00045  -0.00015
  50  N 1   g 4      0.00003  -0.00021  -0.00002   0.00004  -0.00037   0.00041
  51  N 1   g 5     -0.00002  -0.00008  -0.00047   0.00044   0.00019   0.00015
  52  N 1   g 6     -0.00013   0.00065   0.00021   0.00066   0.00013  -0.00072
  53  N 1   g 7      0.00009   0.00047   0.00080  -0.00005   0.00024  -0.00034
  54  N 1   g 8     -0.00034  -0.00001   0.00061  -0.00035   0.00027   0.00016
  55  N 1   g 9      0.00001  -0.00006   0.00022  -0.00009   0.00032   0.00027
  56  N 2   s        0.00076   0.00059  -0.00185   0.00414   0.00082  -0.00082
  57  N 2   s       -0.13850  -0.10842  -0.07607   0.13761   0.02676  -0.02674
  58  N 2   s       -0.10870  -0.08506  -0.06648   0.12228   0.02376  -0.02380
  59  N 2   s       -0.23728  -0.18620  -0.14552   0.24616   0.04767  -0.04760
  60  N 2   s       -0.11285  -0.08907  -0.12864   0.14617   0.02845  -0.02809
  61  N 2   px       0.01208   0.01389  -0.05978   0.06531   0.05168  -0.01729
  62  N 2   py      -0.03609   0.00184  -0.03451   0.04397  -0.03940  -0.04405
  63  N 2   pz      -0.01464   0.04126   0.02506  -0.04759   0.01914  -0.05072
  64  N 2   px       0.02460   0.02782  -0.11303   0.12101   0.09808  -0.03227
  65  N 2   py      -0.06923   0.00411  -0.06524   0.08183  -0.07581  -0.08380
  66  N 2   pz      -0.02888   0.07952   0.04737  -0.08937   0.03691  -0.09731
  67  N 2   px       0.04046   0.04259  -0.13988   0.17085   0.13271  -0.04519
  68  N 2   py      -0.07957   0.00976  -0.08069   0.11447  -0.09985  -0.11289
  69  N 2   pz      -0.03990   0.09495   0.05850  -0.12310   0.04847  -0.12905
  70  N 2   px       0.00987   0.00977  -0.06006   0.10937   0.06017  -0.02620
  71  N 2   py      -0.01267   0.00295  -0.03474   0.06926  -0.03452  -0.04938
  72  N 2   pz      -0.00828   0.01628   0.02517  -0.06637   0.01581  -0.04784
  73  N 2   d 1      0.00155  -0.00053   0.00225  -0.00039   0.00107   0.00152
  74  N 2   d 2     -0.00085  -0.00099  -0.00095   0.00060  -0.00117   0.00094
  75  N 2   d 3     -0.00107   0.00137  -0.00110  -0.00026   0.00104  -0.00153
  76  N 2   d 4      0.00114  -0.00243  -0.00164   0.00077  -0.00013   0.00174
  77  N 2   d 5     -0.00182  -0.00092   0.00130   0.00002  -0.00230  -0.00072
  78  N 2   d 1      0.00757  -0.00456   0.01196  -0.00298   0.00657   0.00910
  79  N 2   d 2     -0.00395  -0.00558  -0.00504   0.00388  -0.00642   0.00638
  80  N 2   d 3     -0.00516   0.00906  -0.00583  -0.00138   0.00702  -0.00881
  81  N 2   d 4      0.00801  -0.01310  -0.00870   0.00475  -0.00030   0.00929
  82  N 2   d 5     -0.01180  -0.00612   0.00691  -0.00041  -0.01291  -0.00437
  83  N 2   d 1      0.00342  -0.00648   0.01490  -0.00882   0.00631   0.01088
  84  N 2   d 2     -0.00354  -0.00316  -0.00626   0.00658  -0.00605   0.00721
  85  N 2   d 3     -0.00418   0.00865  -0.00727   0.00114   0.00883  -0.00978
  86  N 2   d 4      0.00949  -0.01133  -0.01083   0.00897   0.00080   0.00836
  87  N 2   d 5     -0.01226  -0.00751   0.00858  -0.00386  -0.01368  -0.00420
  88  N 2   f 1     -0.00022   0.00040  -0.00081  -0.00057  -0.00009  -0.00033
  89  N 2   f 2      0.00042   0.00071   0.00065   0.00021   0.00072  -0.00061
  90  N 2   f 3      0.00024  -0.00042   0.00007  -0.00000  -0.00023   0.00080
  91  N 2   f 4     -0.00012  -0.00057  -0.00049  -0.00014  -0.00003   0.00040
  92  N 2   f 5      0.00066  -0.00094   0.00033   0.00069  -0.00058   0.00083
  93  N 2   f 6     -0.00073   0.00066   0.00043   0.00041  -0.00045  -0.00058
  94  N 2   f 7      0.00106   0.00033   0.00004   0.00003   0.00130   0.00069
  95  N 2   f 1      0.00023   0.00225  -0.00475   0.00014  -0.00092  -0.00153
  96  N 2   f 2      0.00077   0.00198   0.00369  -0.00077   0.00197  -0.00235
  97  N 2   f 3      0.00049  -0.00179   0.00081  -0.00042  -0.00126   0.00344
  98  N 2   f 4      0.00027  -0.00152  -0.00299   0.00064   0.00102   0.00113
  99  N 2   f 5      0.00218  -0.00354   0.00154   0.00200  -0.00262   0.00241
 100  N 2   f 6     -0.00293   0.00213   0.00217   0.00096  -0.00167  -0.00080
 101  N 2   f 7      0.00388   0.00129   0.00003   0.00037   0.00431   0.00286
 102  N 2   g 1     -0.00015  -0.00032   0.00057   0.00009  -0.00017  -0.00003
 103  N 2   g 2     -0.00012  -0.00052  -0.00069  -0.00036  -0.00023   0.00043
 104  N 2   g 3      0.00003   0.00053  -0.00008  -0.00009   0.00045  -0.00080
 105  N 2   g 4      0.00008   0.00014   0.00031  -0.00021   0.00004  -0.00000
 106  N 2   g 5      0.00042  -0.00044  -0.00000   0.00031  -0.00021   0.00060
 107  N 2   g 6      0.00027   0.00016   0.00056   0.00042  -0.00037  -0.00009
 108  N 2   g 7     -0.00027   0.00015  -0.00006  -0.00033   0.00021   0.00013
 109  N 2   g 8      0.00040  -0.00023  -0.00001  -0.00027   0.00052   0.00007
 110  N 2   g 9     -0.00068  -0.00018  -0.00033  -0.00028  -0.00088  -0.00057
 111  N 3   s        0.00076  -0.00104  -0.00184  -0.00079   0.00067   0.00415
 112  N 3   s       -0.13780   0.19445  -0.07598  -0.02664   0.02242   0.13735
 113  N 3   s       -0.10803   0.15248  -0.06641  -0.02365   0.01995   0.12212
 114  N 3   s       -0.23639   0.33385  -0.14581  -0.04787   0.04027   0.24550
 115  N 3   s       -0.11250   0.15963  -0.12798  -0.02851   0.02371   0.14532
 116  N 3   px      -0.01462   0.01060   0.02547  -0.05264   0.02110  -0.04558
 117  N 3   py      -0.03642  -0.02205  -0.03521  -0.04394  -0.04386   0.04478
 118  N 3   pz       0.01229   0.02166  -0.06047  -0.01825   0.05321   0.06614
 119  N 3   px      -0.02882   0.02126   0.04815  -0.10104   0.04065  -0.08554
 120  N 3   py      -0.06986  -0.04372  -0.06657  -0.08362  -0.08427   0.08338
 121  N 3   pz       0.02503   0.04024  -0.11432  -0.03418   0.10115   0.12257
 122  N 3   px      -0.03984   0.03224   0.05971  -0.13383   0.05348  -0.11823
 123  N 3   py      -0.08027  -0.06240  -0.08241  -0.11250  -0.11158   0.11700
 124  N 3   pz       0.04111   0.03518  -0.14147  -0.04715   0.13637   0.17325
 125  N 3   px      -0.00821   0.00728   0.02576  -0.04925   0.01821  -0.06453
 126  N 3   py      -0.01282  -0.01338  -0.03554  -0.04925  -0.04031   0.07120
 127  N 3   pz       0.01003   0.00262  -0.06116  -0.02671   0.06132   0.11112
 128  N 3   d 1     -0.00086  -0.00090  -0.00096   0.00097  -0.00121   0.00060
 129  N 3   d 2      0.00157   0.00015   0.00228   0.00154   0.00108  -0.00036
 130  N 3   d 3     -0.00106  -0.00207   0.00168   0.00022  -0.00266   0.00013
 131  N 3   d 4      0.00114  -0.00009  -0.00164   0.00184  -0.00020   0.00067
 132  N 3   d 5     -0.00185  -0.00083  -0.00032  -0.00169  -0.00038  -0.00020
 133  N 3   d 1     -0.00396  -0.00632  -0.00509   0.00652  -0.00665   0.00390
 134  N 3   d 2      0.00761   0.00367   0.01215   0.00917   0.00669  -0.00288
 135  N 3   d 3     -0.00774  -0.01040   0.00896   0.00100  -0.01549   0.00014
 136  N 3   d 4      0.00796  -0.00227  -0.00877   0.00984  -0.00068   0.00422
 137  N 3   d 5     -0.01051  -0.00493  -0.00173  -0.00988  -0.00118  -0.00120
 138  N 3   d 1     -0.00357  -0.00759  -0.00636   0.00725  -0.00632   0.00665
 139  N 3   d 2      0.00346   0.00661   0.01513   0.01083   0.00664  -0.00884
 140  N 3   d 3     -0.00863  -0.00641   0.01118   0.00146  -0.01706  -0.00412
 141  N 3   d 4      0.00951  -0.00520  -0.01093   0.00888   0.00031   0.00834
 142  N 3   d 5     -0.00983  -0.00604  -0.00213  -0.01057  -0.00022  -0.00060
 143  N 3   f 1      0.00017   0.00022  -0.00013   0.00068  -0.00020  -0.00014
 144  N 3   f 2      0.00042   0.00020   0.00064  -0.00064   0.00071   0.00023
 145  N 3   f 3     -0.00027   0.00062  -0.00081  -0.00054   0.00004  -0.00058
 146  N 3   f 4      0.00044   0.00091  -0.00016   0.00000   0.00141  -0.00037
 147  N 3   f 5     -0.00048  -0.00039   0.00062  -0.00073  -0.00030   0.00046
 148  N 3   f 6      0.00118   0.00016   0.00029   0.00108   0.00039   0.00058
 149  N 3   f 7     -0.00055  -0.00046  -0.00012  -0.00005  -0.00033   0.00015
 150  N 3   f 1      0.00053   0.00092  -0.00039   0.00290  -0.00127  -0.00038
 151  N 3   f 2      0.00075   0.00178   0.00371  -0.00244   0.00197  -0.00071
 152  N 3   f 3      0.00013   0.00071  -0.00485  -0.00232  -0.00039   0.00016
 153  N 3   f 4      0.00174   0.00307  -0.00090   0.00069   0.00514  -0.00083
 154  N 3   f 5     -0.00241  -0.00047   0.00352  -0.00138  -0.00183   0.00053
 155  N 3   f 6      0.00417   0.00069   0.00129   0.00367   0.00077   0.00178
 156  N 3   f 7     -0.00162  -0.00216  -0.00105   0.00036  -0.00033   0.00115
 157  N 3   g 1      0.00004   0.00054   0.00005   0.00015  -0.00002  -0.00033
 158  N 3   g 2     -0.00003  -0.00005   0.00012  -0.00074   0.00032  -0.00006
 159  N 3   g 3     -0.00013   0.00025  -0.00075   0.00042  -0.00020  -0.00028
 160  N 3   g 4     -0.00016  -0.00043   0.00056   0.00025  -0.00035   0.00011
 161  N 3   g 5     -0.00019  -0.00029  -0.00022  -0.00026  -0.00083   0.00006
 162  N 3   g 6      0.00004   0.00052  -0.00041   0.00010   0.00059  -0.00050
 163  N 3   g 7     -0.00082   0.00024  -0.00026  -0.00063  -0.00037  -0.00053
 164  N 3   g 8      0.00048   0.00013   0.00036  -0.00000   0.00016   0.00007
 165  N 3   g 9      0.00004   0.00010  -0.00008   0.00044  -0.00011  -0.00003
 166  N 4   s       -0.00124  -0.00050  -0.00184  -0.00088  -0.00408  -0.00098
 167  N 4   s        0.22482   0.09372  -0.07604  -0.02951  -0.13534  -0.03211
 168  N 4   s        0.17635   0.07355  -0.06645  -0.02618  -0.12030  -0.02860
 169  N 4   s        0.38541   0.16070  -0.14567  -0.05282  -0.24201  -0.05737
 170  N 4   s        0.18336   0.07677  -0.12832  -0.03162  -0.14348  -0.03369
 171  N 4   px      -0.01579  -0.00421  -0.01759  -0.06879  -0.00921  -0.00182
 172  N 4   py      -0.01157   0.00815   0.06972   0.00257   0.09077   0.00457
 173  N 4   pz      -0.01540   0.04425  -0.01728  -0.00071  -0.00460  -0.07182
 174  N 4   px      -0.03117  -0.00839  -0.03326  -0.13135  -0.01649  -0.00321
 175  N 4   py      -0.02015   0.01676   0.13180   0.00395   0.16915   0.00766
 176  N 4   pz      -0.03042   0.08549  -0.03266  -0.00113  -0.00769  -0.13708
 177  N 4   px      -0.04328  -0.01236  -0.04114  -0.17551  -0.02491  -0.00500
 178  N 4   py      -0.00568   0.02865   0.16310   0.00758   0.23655   0.01293
 179  N 4   pz      -0.04231   0.10362  -0.04043  -0.00205  -0.01286  -0.18364
 180  N 4   px      -0.00900  -0.00274  -0.01764  -0.07136  -0.02228  -0.00498
 181  N 4   py       0.00400   0.00721   0.07028   0.01333   0.14169   0.01673
 182  N 4   pz      -0.00881   0.01817  -0.01751  -0.00331  -0.01676  -0.07616
 183  N 4   d 1     -0.00067  -0.00058  -0.00133  -0.00262   0.00020   0.00012
 184  N 4   d 2     -0.00064   0.00289  -0.00130   0.00012   0.00038  -0.00266
 185  N 4   d 3      0.00071  -0.00073  -0.00143  -0.00036  -0.00055   0.00136
 186  N 4   d 4      0.00082  -0.00108   0.00033   0.00037  -0.00011   0.00044
 187  N 4   d 5      0.00124  -0.00059  -0.00246   0.00140  -0.00093   0.00039
 188  N 4   d 1     -0.00572  -0.00398  -0.00707  -0.01504   0.00082   0.00018
 189  N 4   d 2     -0.00556   0.01636  -0.00691   0.00024   0.00185  -0.01538
 190  N 4   d 3      0.00229  -0.00546  -0.00758  -0.00282  -0.00360   0.00848
 191  N 4   d 4      0.00503  -0.00588   0.00175   0.00131  -0.00016   0.00178
 192  N 4   d 5      0.00418  -0.00463  -0.01309   0.00837  -0.00611   0.00169
 193  N 4   d 1     -0.00760  -0.00526  -0.00879  -0.01623  -0.00246  -0.00100
 194  N 4   d 2     -0.00741   0.01389  -0.00862  -0.00082  -0.00113  -0.01692
 195  N 4   d 3     -0.00075  -0.00500  -0.00943  -0.00435  -0.00734   0.00876
 196  N 4   d 4      0.00611  -0.00612   0.00218   0.00070   0.00100   0.00135
 197  N 4   d 5     -0.00115  -0.00675  -0.01632   0.00787  -0.01250  -0.00004
 198  N 4   f 1      0.00078  -0.00018  -0.00067   0.00122   0.00015   0.00032
 199  N 4   f 2      0.00035  -0.00077   0.00031   0.00027  -0.00050   0.00030
 200  N 4   f 3      0.00059  -0.00056  -0.00054   0.00000   0.00011   0.00115
 201  N 4   f 4      0.00021  -0.00086   0.00033   0.00004  -0.00019   0.00064
 202  N 4   f 5     -0.00026   0.00019   0.00022   0.00034  -0.00039  -0.00030
 203  N 4   f 6     -0.00019  -0.00095   0.00051  -0.00033  -0.00066   0.00085
 204  N 4   f 7      0.00005   0.00038   0.00059   0.00102  -0.00048  -0.00020
 205  N 4   f 1      0.00150  -0.00118  -0.00390   0.00439  -0.00101   0.00034
 206  N 4   f 2      0.00158  -0.00263   0.00151   0.00013  -0.00090   0.00031
 207  N 4   f 3      0.00110  -0.00246  -0.00307  -0.00077  -0.00085   0.00437
 208  N 4   f 4      0.00181  -0.00267   0.00227   0.00079   0.00050   0.00192
 209  N 4   f 5     -0.00096   0.00068   0.00083   0.00166  -0.00142  -0.00084
 210  N 4   f 6      0.00009  -0.00311   0.00277  -0.00035  -0.00151   0.00337
 211  N 4   f 7      0.00150   0.00191   0.00356   0.00346  -0.00025   0.00040
 212  N 4   g 1     -0.00006   0.00025   0.00063   0.00036  -0.00018   0.00004
 213  N 4   g 2     -0.00039  -0.00040   0.00038  -0.00017  -0.00045   0.00046
 214  N 4   g 3     -0.00038   0.00002   0.00019   0.00040  -0.00040  -0.00022
 215  N 4   g 4      0.00009  -0.00043   0.00052   0.00012  -0.00006   0.00024
 216  N 4   g 5     -0.00057   0.00036   0.00022   0.00002  -0.00015  -0.00080
 217  N 4   g 6      0.00006   0.00004  -0.00014  -0.00020   0.00019   0.00014
 218  N 4   g 7     -0.00009   0.00026   0.00033  -0.00001   0.00016  -0.00069
 219  N 4   g 8      0.00019   0.00062  -0.00036   0.00001   0.00052  -0.00013
 220  N 4   g 9     -0.00056  -0.00002   0.00041  -0.00107  -0.00000  -0.00012
                        13        14        15        16        17        18
 eigenvalues:         -0.534    -0.529     0.188     0.191     0.191     0.193
   1  N 1   s        0.00008  -0.00007  -0.00277  -0.00076   0.00320  -0.00367
   2  N 1   s        0.00188  -0.00164   0.04607   0.01181  -0.04908   0.05870
   3  N 1   s        0.00172  -0.00150   0.01005   0.00228  -0.00909   0.01165
   4  N 1   s        0.00322  -0.00279   0.06936   0.01832  -0.07669   0.08777
   5  N 1   s        0.00126  -0.00101   1.84836   0.48825  -2.04701   2.42740
   6  N 1   px      -0.04252   0.04358   0.07924   0.01418  -0.04895   0.00605
   7  N 1   py       0.05962   0.06082   0.06410  -0.01950   0.08734  -0.01261
   8  N 1   pz       0.04147  -0.04281  -0.04353  -0.00509   0.01130   0.03766
   9  N 1   px      -0.08107   0.08305   0.11966   0.01987  -0.06458  -0.02500
  10  N 1   py       0.11380   0.11600   0.11441  -0.03641   0.15912  -0.01844
  11  N 1   pz       0.07923  -0.08172  -0.09888  -0.01502   0.04515   0.04627
  12  N 1   px      -0.11227   0.11544   0.41671   0.08357  -0.31274   0.25409
  13  N 1   py       0.15712   0.16078   0.23019  -0.05709   0.28765  -0.07830
  14  N 1   pz       0.10906  -0.11294  -0.02623   0.01910  -0.11688   0.25050
  15  N 1   px      -0.05736   0.05970   1.21591   0.24215  -0.91762   1.13692
  16  N 1   py       0.07982   0.08277   0.57846  -0.08008   0.58416  -0.33777
  17  N 1   pz       0.05507  -0.05786   0.08343   0.10059  -0.51852   0.56164
  18  N 1   d 1      0.00011   0.00231  -0.00236  -0.00003  -0.00084   0.00074
  19  N 1   d 2      0.00232   0.00008  -0.00038   0.00022  -0.00154   0.00141
  20  N 1   d 3      0.00216  -0.00079   0.00158   0.00021  -0.00081   0.00177
  21  N 1   d 4     -0.00078  -0.00080  -0.00043  -0.00030   0.00166  -0.00147
  22  N 1   d 5      0.00033   0.00202  -0.00258  -0.00021   0.00008  -0.00132
  23  N 1   d 1      0.00107   0.01395  -0.00916  -0.00058  -0.00151  -0.00064
  24  N 1   d 2      0.01391   0.00103   0.00031   0.00042  -0.00394   0.00814
  25  N 1   d 3      0.01309  -0.00528   0.00658   0.00090  -0.00428   0.01151
  26  N 1   d 4     -0.00456  -0.00456   0.00503   0.00080  -0.00117   0.00172
  27  N 1   d 5      0.00156   0.01214  -0.00682  -0.00026  -0.00301  -0.00093
  28  N 1   d 1      0.00221   0.01859   0.06958  -0.00109   0.04102  -0.01591
  29  N 1   d 2      0.01829   0.00237   0.03516  -0.00367   0.04496  -0.06979
  30  N 1   d 3      0.01741  -0.00792  -0.05214  -0.00097  -0.00467  -0.05253
  31  N 1   d 4     -0.00583  -0.00563   0.09516   0.02673  -0.11996   0.14631
  32  N 1   d 5      0.00129   0.01606   0.11748   0.02067  -0.06604   0.10203
  33  N 1   f 1     -0.00054   0.00095  -0.00217  -0.00023   0.00008  -0.00051
  34  N 1   f 2      0.00035   0.00032  -0.00112   0.00001  -0.00118   0.00188
  35  N 1   f 3      0.00111  -0.00081   0.00029   0.00002  -0.00041   0.00159
  36  N 1   f 4      0.00111   0.00056   0.00105  -0.00023  -0.00110   0.00297
  37  N 1   f 5     -0.00007  -0.00060   0.00153   0.00051   0.00045   0.00142
  38  N 1   f 6      0.00010   0.00032  -0.00128  -0.00106   0.00024  -0.00134
  39  N 1   f 7      0.00066   0.00094  -0.00182   0.00068   0.00004  -0.00078
  40  N 1   f 1     -0.00151   0.00364   0.01439   0.00111   0.00040   0.00486
  41  N 1   f 2      0.00174   0.00171   0.00697  -0.00115   0.01164  -0.01349
  42  N 1   f 3      0.00406  -0.00244   0.00145   0.00006   0.00186  -0.00844
  43  N 1   f 4      0.00424   0.00140  -0.00924  -0.00167   0.00680  -0.01755
  44  N 1   f 5      0.00020  -0.00253  -0.00804   0.00039  -0.00340  -0.00377
  45  N 1   f 6      0.00012   0.00131   0.01109   0.00133  -0.00656   0.01088
  46  N 1   f 7      0.00199   0.00346   0.01206   0.00184  -0.00142   0.00547
  47  N 1   g 1     -0.00049   0.00044   0.00175   0.00023  -0.00057   0.00176
  48  N 1   g 2     -0.00031   0.00023   0.00100  -0.00002   0.00074  -0.00039
  49  N 1   g 3      0.00042  -0.00050  -0.00015  -0.00012   0.00096  -0.00232
  50  N 1   g 4      0.00056  -0.00057   0.00020   0.00018  -0.00083  -0.00047
  51  N 1   g 5      0.00060   0.00062   0.00037  -0.00040  -0.00007  -0.00094
  52  N 1   g 6      0.00012   0.00022  -0.00135   0.00020   0.00051  -0.00201
  53  N 1   g 7     -0.00015  -0.00014  -0.00068  -0.00056   0.00014  -0.00047
  54  N 1   g 8      0.00048   0.00043   0.00083  -0.00004   0.00017  -0.00018
  55  N 1   g 9      0.00045   0.00042   0.00067   0.00068   0.00022  -0.00012
  56  N 2   s       -0.00003  -0.00005   0.00253   0.00056  -0.00105   0.00531
  57  N 2   s       -0.00114  -0.00094  -0.04213  -0.00888   0.01732  -0.08090
  58  N 2   s       -0.00103  -0.00086  -0.00938  -0.00178   0.00375  -0.01499
  59  N 2   s       -0.00199  -0.00159  -0.06256  -0.01328   0.02540  -0.12447
  60  N 2   s       -0.00177  -0.00031  -1.68435  -0.36612   0.70151  -3.38542
  61  N 2   px       0.03934  -0.03159   0.06931   0.03853   0.01485   0.02766
  62  N 2   py      -0.07681  -0.00501  -0.00719  -0.07957  -0.05843   0.00979
  63  N 2   pz      -0.00944  -0.08060   0.08544  -0.03256  -0.01840  -0.04765
  64  N 2   px       0.07507  -0.06018   0.10087   0.06447   0.03770  -0.00092
  65  N 2   py      -0.14655  -0.00952  -0.02585  -0.14722  -0.09888  -0.00129
  66  N 2   pz      -0.01804  -0.15376   0.16148  -0.05780  -0.03279  -0.06616
  67  N 2   px       0.10381  -0.08368   0.38777   0.16335  -0.01822   0.41640
  68  N 2   py      -0.20239  -0.01329   0.05352  -0.24938  -0.24276   0.13493
  69  N 2   pz      -0.02488  -0.21281   0.25313  -0.11556  -0.07487  -0.28805
  70  N 2   px       0.05237  -0.04322   1.15399   0.41947  -0.19277   1.57013
  71  N 2   py      -0.10275  -0.00696   0.23257  -0.50437  -0.64020   0.24964
  72  N 2   pz      -0.01255  -0.10944   0.59384  -0.23330  -0.31880  -0.84290
  73  N 2   d 1      0.00014   0.00074   0.00137  -0.00032  -0.00109   0.00025
  74  N 2   d 2     -0.00184  -0.00033   0.00052   0.00113   0.00073   0.00058
  75  N 2   d 3     -0.00160  -0.00049  -0.00117   0.00088   0.00159   0.00029
  76  N 2   d 4      0.00063   0.00274   0.00235  -0.00087  -0.00169  -0.00236
  77  N 2   d 5     -0.00217   0.00152   0.00266   0.00165   0.00056   0.00272
  78  N 2   d 1      0.00132   0.00456   0.00124  -0.00088  -0.00177  -0.00576
  79  N 2   d 2     -0.01094  -0.00150   0.00223   0.00392   0.00298   0.00856
  80  N 2   d 3     -0.00933  -0.00347  -0.00065   0.00322   0.00462   0.00728
  81  N 2   d 4      0.00390   0.01654   0.01235  -0.00117  -0.00888  -0.00109
  82  N 2   d 5     -0.01334   0.00916   0.00767   0.00420   0.00082   0.00677
  83  N 2   d 1      0.00256   0.00622  -0.09194   0.01559   0.07319  -0.10585
  84  N 2   d 2     -0.01421  -0.00104  -0.01564  -0.01549  -0.02169   0.01851
  85  N 2   d 3     -0.01185  -0.00553   0.08772  -0.00956  -0.05840   0.02739
  86  N 2   d 4      0.00529   0.02209  -0.03637   0.03365   0.05210   0.15116
  87  N 2   d 5     -0.01812   0.01214  -0.11505  -0.06762  -0.00595  -0.17256
  88  N 2   f 1      0.00092  -0.00074  -0.00222  -0.00077   0.00098  -0.00152
  89  N 2   f 2      0.00060   0.00020  -0.00086  -0.00098   0.00062  -0.00060
  90  N 2   f 3      0.00006  -0.00062   0.00061  -0.00039  -0.00018   0.00032
  91  N 2   f 4     -0.00083   0.00066   0.00131  -0.00007   0.00032   0.00003
  92  N 2   f 5      0.00084   0.00044   0.00190  -0.00058  -0.00192  -0.00142
  93  N 2   f 6     -0.00081  -0.00113  -0.00125   0.00088   0.00222   0.00236
  94  N 2   f 7      0.00020  -0.00065  -0.00177  -0.00097  -0.00050  -0.00295
  95  N 2   f 1      0.00309  -0.00285   0.01611   0.00295  -0.00574   0.01413
  96  N 2   f 2      0.00229   0.00019   0.00593   0.00251   0.00127  -0.00045
  97  N 2   f 3      0.00034  -0.00168  -0.00691   0.00096   0.00519  -0.00425
  98  N 2   f 4     -0.00281   0.00250  -0.00507  -0.00113   0.00175   0.00493
  99  N 2   f 5      0.00288   0.00227  -0.01345   0.00348   0.01136   0.01033
 100  N 2   f 6     -0.00324  -0.00405   0.00661  -0.00755  -0.01282  -0.01452
 101  N 2   f 7      0.00157  -0.00236   0.01171   0.01002   0.00420   0.01847
 102  N 2   g 1     -0.00045   0.00058  -0.00185  -0.00056   0.00035  -0.00200
 103  N 2   g 2      0.00010  -0.00005  -0.00105   0.00033   0.00023  -0.00055
 104  N 2   g 3      0.00011   0.00053   0.00101  -0.00005  -0.00051   0.00039
 105  N 2   g 4      0.00045  -0.00022   0.00014   0.00023   0.00032   0.00016
 106  N 2   g 5      0.00013  -0.00007  -0.00074  -0.00005   0.00116   0.00119
 107  N 2   g 6      0.00067  -0.00041   0.00089   0.00043  -0.00060   0.00154
 108  N 2   g 7     -0.00049  -0.00057   0.00082  -0.00035  -0.00090  -0.00193
 109  N 2   g 8      0.00033   0.00065  -0.00052   0.00058   0.00162   0.00133
 110  N 2   g 9      0.00061   0.00019  -0.00068  -0.00082   0.00009  -0.00127
 111  N 3   s        0.00005   0.00003   0.00025   0.00070  -0.00211  -0.00520
 112  N 3   s        0.00105   0.00107  -0.00310  -0.01038   0.03149   0.07943
 113  N 3   s        0.00096   0.00096  -0.00032  -0.00174   0.00536   0.01404
 114  N 3   s        0.00179   0.00185  -0.00590  -0.01663   0.05069   0.12455
 115  N 3   s        0.00042   0.00171  -0.13812  -0.43981   1.33110   3.34702
 116  N 3   px      -0.07833  -0.01027  -0.04130   0.01817   0.07525   0.05479
 117  N 3   py      -0.00582  -0.07331  -0.02079   0.10075  -0.01546  -0.01581
 118  N 3   pz      -0.02877   0.03932  -0.00282  -0.04356   0.01907  -0.01982
 119  N 3   px      -0.14948  -0.01959  -0.07877   0.03408   0.13205   0.07087
 120  N 3   py      -0.01115  -0.13987  -0.03998   0.17750  -0.01720  -0.00184
 121  N 3   pz      -0.05499   0.07501  -0.00824  -0.08460   0.05396   0.00594
 122  N 3   px      -0.20667  -0.02718  -0.10592   0.05656   0.27385   0.37773
 123  N 3   py      -0.01529  -0.19381  -0.05332   0.37451  -0.12018  -0.22053
 124  N 3   pz      -0.07564   0.10380   0.01282  -0.11219  -0.05962  -0.32089
 125  N 3   px      -0.10510  -0.01406  -0.04766   0.14898   0.53560   1.37908
 126  N 3   py      -0.00760  -0.09977  -0.05484   0.90899  -0.37973  -0.76061
 127  N 3   pz      -0.03825   0.05373   0.09649  -0.19568  -0.36671  -1.01549
 128  N 3   d 1     -0.00039  -0.00181   0.00039  -0.00164   0.00023   0.00135
 129  N 3   d 2      0.00077   0.00003   0.00017   0.00095  -0.00043  -0.00050
 130  N 3   d 3      0.00150  -0.00093   0.00039  -0.00105   0.00016   0.00116
 131  N 3   d 4      0.00276   0.00060   0.00020   0.00106   0.00112   0.00405
 132  N 3   d 5      0.00037  -0.00244  -0.00007  -0.00245   0.00049  -0.00021
 133  N 3   d 1     -0.00184  -0.01075   0.00047  -0.00557  -0.00060  -0.00089
 134  N 3   d 2      0.00465   0.00068   0.00081   0.00079   0.00155   0.00749
 135  N 3   d 3      0.00911  -0.00610   0.00180  -0.00299   0.00180   0.01130
 136  N 3   d 4      0.01666   0.00373   0.00327   0.00428  -0.00056   0.01071
 137  N 3   d 5      0.00182  -0.01467  -0.00018  -0.00773   0.00103   0.00044
 138  N 3   d 1     -0.00153  -0.01393   0.00135   0.04311  -0.03963  -0.09766
 139  N 3   d 2      0.00616   0.00187  -0.00921  -0.06751   0.05852   0.11023
 140  N 3   d 3      0.01220  -0.00901  -0.02254   0.04051   0.02621   0.02006
 141  N 3   d 4      0.02200   0.00525  -0.01773  -0.03068  -0.04860  -0.22362
 142  N 3   d 5      0.00164  -0.01931  -0.00092   0.07061  -0.00479  -0.00000
 143  N 3   f 1     -0.00082   0.00028   0.00064   0.00071  -0.00001  -0.00067
 144  N 3   f 2      0.00022   0.00059   0.00024   0.00100   0.00028  -0.00213
 145  N 3   f 3     -0.00056   0.00089  -0.00049   0.00031   0.00044  -0.00126
 146  N 3   f 4     -0.00074  -0.00046  -0.00088   0.00044  -0.00013  -0.00286
 147  N 3   f 5     -0.00131  -0.00007  -0.00096  -0.00124  -0.00032  -0.00298
 148  N 3   f 6     -0.00008   0.00077   0.00047   0.00191  -0.00018   0.00181
 149  N 3   f 7     -0.00019  -0.00115   0.00063  -0.00145   0.00079   0.00066
 150  N 3   f 1     -0.00250   0.00110   0.00070  -0.00394   0.00167   0.00466
 151  N 3   f 2      0.00032   0.00221   0.00167  -0.00543   0.00459   0.01557
 152  N 3   f 3     -0.00228   0.00300   0.00316   0.00035  -0.00340   0.00184
 153  N 3   f 4     -0.00299  -0.00085   0.00397  -0.00635   0.00161   0.01723
 154  N 3   f 5     -0.00478  -0.00068   0.00315   0.00840   0.00152   0.02090
 155  N 3   f 6      0.00023   0.00321  -0.00124  -0.01348  -0.00131  -0.01273
 156  N 3   f 7     -0.00057  -0.00418   0.00054   0.01050  -0.00352  -0.00811
 157  N 3   g 1     -0.00023   0.00044  -0.00006  -0.00083   0.00039   0.00175
 158  N 3   g 2      0.00075  -0.00007  -0.00032   0.00042   0.00006  -0.00048
 159  N 3   g 3      0.00001  -0.00006  -0.00070  -0.00028  -0.00012  -0.00036
 160  N 3   g 4      0.00033  -0.00044  -0.00070   0.00050   0.00019  -0.00163
 161  N 3   g 5      0.00038   0.00082  -0.00040   0.00010   0.00020  -0.00209
 162  N 3   g 6      0.00075  -0.00033  -0.00026  -0.00081   0.00095  -0.00054
 163  N 3   g 7     -0.00010   0.00011   0.00036   0.00089   0.00043   0.00293
 164  N 3   g 8      0.00024   0.00068  -0.00032  -0.00129   0.00016  -0.00004
 165  N 3   g 9     -0.00043  -0.00016   0.00065   0.00025   0.00028   0.00055
 166  N 4   s       -0.00007   0.00006   0.00005  -0.00051  -0.00002   0.00380
 167  N 4   s       -0.00203   0.00172  -0.00063   0.00745   0.00035  -0.05635
 168  N 4   s       -0.00184   0.00155  -0.00009   0.00123   0.00009  -0.00955
 169  N 4   s       -0.00354   0.00297  -0.00124   0.01161   0.00043  -0.08956
 170  N 4   s       -0.00267   0.00237  -0.02547   0.31766   0.01457  -2.38725
 171  N 4   px       0.08341  -0.00201  -0.05094  -0.06225  -0.07294   0.03261
 172  N 4   py       0.02187   0.01857  -0.01841   0.01178  -0.03224  -0.02420
 173  N 4   pz      -0.00290   0.08222  -0.02154   0.09117  -0.05696  -0.00114
 174  N 4   px       0.15918  -0.00385  -0.09682  -0.11188  -0.12848   0.03924
 175  N 4   py       0.04168   0.03546  -0.03438   0.01575  -0.05662  -0.00726
 176  N 4   pz      -0.00552   0.15686  -0.04047   0.16472  -0.09868  -0.00723
 177  N 4   px       0.22004  -0.00533  -0.13502  -0.21469  -0.27559   0.25292
 178  N 4   py       0.05762   0.04910  -0.05303   0.07565  -0.12391  -0.30659
 179  N 4   pz      -0.00762   0.21712  -0.06104   0.31436  -0.22931   0.01988
 180  N 4   px       0.11148  -0.00265  -0.11013  -0.45984  -0.73941   1.05614
 181  N 4   py       0.02971   0.02490  -0.05953   0.23872  -0.34811  -0.99831
 182  N 4   pz      -0.00399   0.11197  -0.07590   0.74256  -0.68447  -0.03471
 183  N 4   d 1      0.00215  -0.00092  -0.00022   0.00180   0.00177  -0.00385
 184  N 4   d 2     -0.00092   0.00204  -0.00001  -0.00253   0.00171   0.00127
 185  N 4   d 3     -0.00116   0.00045  -0.00008  -0.00015  -0.00100  -0.00028
 186  N 4   d 4     -0.00203  -0.00200  -0.00029   0.00074  -0.00296   0.00113
 187  N 4   d 5     -0.00026  -0.00112   0.00011   0.00087  -0.00166  -0.00039
 188  N 4   d 1      0.01333  -0.00539  -0.00207   0.00483   0.00464  -0.01139
 189  N 4   d 2     -0.00543   0.01275   0.00015  -0.00788   0.00522   0.01001
 190  N 4   d 3     -0.00671   0.00222   0.00071  -0.00217  -0.00293   0.00634
 191  N 4   d 4     -0.01200  -0.01187   0.00136   0.00341  -0.01271   0.00498
 192  N 4   d 5     -0.00202  -0.00674   0.00090   0.00263  -0.00527   0.00339
 193  N 4   d 1      0.01823  -0.00689   0.00874  -0.06093  -0.07441   0.19429
 194  N 4   d 2     -0.00700   0.01777  -0.00559   0.08233  -0.07414  -0.01506
 195  N 4   d 3     -0.00844   0.00203  -0.00319  -0.03120   0.03642   0.05117
 196  N 4   d 4     -0.01543  -0.01536  -0.01252  -0.02032   0.08582  -0.05445
 197  N 4   d 5     -0.00345  -0.00881   0.00089  -0.02487   0.06836   0.08405
 198  N 4   f 1      0.00039  -0.00050   0.00072   0.00049  -0.00197   0.00069
 199  N 4   f 2     -0.00116  -0.00113   0.00054   0.00093  -0.00350   0.00148
 200  N 4   f 3     -0.00060   0.00057  -0.00006   0.00048  -0.00124   0.00014
 201  N 4   f 4      0.00049  -0.00081  -0.00043   0.00166  -0.00101  -0.00087
 202  N 4   f 5      0.00050   0.00028  -0.00061  -0.00018   0.00106   0.00029
 203  N 4   f 6      0.00075   0.00006   0.00027   0.00118  -0.00045  -0.00256
 204  N 4   f 7     -0.00064   0.00086   0.00074  -0.00163  -0.00100   0.00436
 205  N 4   f 1      0.00066  -0.00187  -0.00048  -0.00208   0.01316  -0.00239
 206  N 4   f 2     -0.00426  -0.00419  -0.00250  -0.00568   0.02145  -0.00890
 207  N 4   f 3     -0.00208   0.00137  -0.00084  -0.00559   0.00998   0.00219
 208  N 4   f 4      0.00170  -0.00325   0.00019  -0.00958   0.00881   0.00322
 209  N 4   f 5      0.00150   0.00110   0.00010   0.00332  -0.00297   0.00129
 210  N 4   f 6      0.00276  -0.00039   0.00179  -0.01029   0.00192   0.01322
 211  N 4   f 7     -0.00287   0.00306  -0.00201   0.01153   0.00760  -0.02985
 212  N 4   g 1     -0.00027   0.00067  -0.00022   0.00113   0.00006  -0.00292
 213  N 4   g 2      0.00042   0.00050   0.00081  -0.00064  -0.00109   0.00218
 214  N 4   g 3      0.00060   0.00020   0.00001   0.00061  -0.00075   0.00114
 215  N 4   g 4      0.00054  -0.00047   0.00012  -0.00100   0.00073   0.00171
 216  N 4   g 5      0.00030  -0.00032   0.00038   0.00040  -0.00105   0.00086
 217  N 4   g 6      0.00012   0.00027   0.00049   0.00015  -0.00109   0.00000
 218  N 4   g 7     -0.00003  -0.00058   0.00010   0.00033  -0.00049  -0.00032
 219  N 4   g 8      0.00052   0.00044   0.00047   0.00079  -0.00227   0.00037
 220  N 4   g 9     -0.00058   0.00014  -0.00028  -0.00002  -0.00101   0.00099
                        19        20        21        22        23        24
 eigenvalues:          0.194     0.196     0.351     0.414     0.415     0.417
   1  N 1   s        0.00089  -0.00638  -0.00189  -0.01893  -0.00111  -0.01922
   2  N 1   s       -0.01177   0.08922   0.05271  -0.04916  -0.00284  -0.04780
   3  N 1   s       -0.00147   0.01283   0.08014  -0.10333  -0.00603  -0.10387
   4  N 1   s       -0.02032   0.14534  -0.42201  -0.28177  -0.01573  -0.25151
   5  N 1   s       -0.52060   3.90282  -0.23577   4.33730   0.25194   4.28094
   6  N 1   px      -0.01617  -0.00527  -0.02453  -0.05304  -0.00297  -0.04916
   7  N 1   py       0.01617   0.02791   0.00001   0.00021  -0.00403   0.00005
   8  N 1   pz       0.00689   0.07239  -0.02397  -0.04868  -0.00299  -0.05286
   9  N 1   px      -0.02582  -0.05102  -0.03659  -0.19788  -0.01012  -0.13310
  10  N 1   py       0.01739   0.04762   0.00001   0.00235  -0.06313   0.00142
  11  N 1   pz       0.02144   0.07929  -0.03591  -0.13293  -0.00913  -0.19444
  12  N 1   px      -0.07112   0.22918  -0.33022   0.34895   0.01071  -0.01009
  13  N 1   py       0.15171   0.11848   0.00001  -0.01483   0.35716  -0.00620
  14  N 1   pz      -0.03861   0.58226  -0.32503  -0.00822   0.00906   0.34730
  15  N 1   px      -0.09531   0.77963   0.72875   1.99247   0.11873   1.70762
  16  N 1   py       0.81820   0.36320   0.00012  -0.00214   0.27781  -0.01518
  17  N 1   pz      -0.27033   1.95033   0.71936   1.67177   0.09517   1.94280
  18  N 1   d 1     -0.00274  -0.00003  -0.00001   0.00089  -0.00026  -0.00081
  19  N 1   d 2     -0.00252  -0.00200   0.00001  -0.00083  -0.00033   0.00078
  20  N 1   d 3      0.00022  -0.00386   0.00202   0.00020   0.00069  -0.00029
  21  N 1   d 4      0.00093  -0.00190   0.00740   0.00016  -0.00082   0.00024
  22  N 1   d 5     -0.00113   0.00018   0.00376  -0.00006   0.00127   0.00026
  23  N 1   d 1     -0.01239   0.00229   0.00010   0.00353   0.03301  -0.00615
  24  N 1   d 2     -0.00857  -0.00832  -0.00011  -0.00717   0.03271   0.00597
  25  N 1   d 3     -0.00080  -0.00855  -0.01879  -0.03425   0.00530   0.02299
  26  N 1   d 4      0.00411   0.00714  -0.06723  -0.02322  -0.00704  -0.02210
  27  N 1   d 5     -0.00978   0.00572  -0.03398   0.00384   0.00746  -0.02848
  28  N 1   d 1      0.12121   0.00979  -0.00114   0.02375   0.14408  -0.02959
  29  N 1   d 2      0.09626   0.06921   0.00120  -0.03216   0.13760   0.02106
  30  N 1   d 3     -0.01423   0.18467   0.04889   0.00011   0.02675   0.24376
  31  N 1   d 4     -0.05759   0.21392   0.17168   0.44214  -0.00068   0.45042
  32  N 1   d 5      0.04413   0.05624   0.08625   0.29577   0.05538   0.15425
  33  N 1   f 1     -0.00268  -0.00019  -0.00250   0.00046   0.00153  -0.00161
  34  N 1   f 2     -0.00394  -0.00051   0.00248   0.00029   0.00256   0.00050
  35  N 1   f 3     -0.00125  -0.00260  -0.00202  -0.00181   0.00118   0.00115
  36  N 1   f 4     -0.00080  -0.00263   0.00109  -0.00014   0.00191   0.00285
  37  N 1   f 5      0.00159  -0.00284  -0.00382  -0.00594  -0.00089  -0.00314
  38  N 1   f 6     -0.00061  -0.00000  -0.00408  -0.00438   0.00010  -0.00563
  39  N 1   f 7     -0.00206   0.00036  -0.00168  -0.00138   0.00151  -0.00289
  40  N 1   f 1      0.01568   0.00464   0.01571   0.00819   0.01936   0.00273
  41  N 1   f 2      0.02378   0.00118  -0.01567  -0.00707   0.02981  -0.00616
  42  N 1   f 3      0.00681   0.01889   0.01278   0.00062   0.01384   0.00713
  43  N 1   f 4      0.00615   0.01611  -0.00119  -0.02697   0.00331   0.00687
  44  N 1   f 5     -0.00964   0.02436   0.00458   0.01699   0.00006   0.05234
  45  N 1   f 6      0.00285   0.00493   0.00476   0.04376   0.00339   0.03027
  46  N 1   f 7      0.01142  -0.00089   0.00193   0.02438   0.00493   0.00591
  47  N 1   g 1      0.00129   0.00076   0.00175   0.00262   0.00354   0.00092
  48  N 1   g 2      0.00237  -0.00012  -0.00030   0.00135   0.00708  -0.00239
  49  N 1   g 3      0.00147   0.00090  -0.00086  -0.00370   0.00607   0.00146
  50  N 1   g 4     -0.00064   0.00335   0.00192   0.00052   0.00085   0.00371
  51  N 1   g 5      0.00191   0.00129   0.00148  -0.00176   0.00367   0.00070
  52  N 1   g 6      0.00003   0.00223  -0.00060  -0.00592   0.00043   0.00652
  53  N 1   g 7     -0.00063  -0.00017  -0.00248  -0.00069   0.00042   0.00224
  54  N 1   g 8      0.00192  -0.00075  -0.00191   0.00278   0.00104  -0.00177
  55  N 1   g 9      0.00155  -0.00034  -0.00069   0.00172   0.00345  -0.00157
  56  N 2   s        0.00579  -0.00092  -0.00177   0.02144   0.01331  -0.00965
  57  N 2   s       -0.08639   0.01141   0.05340   0.05425   0.03373  -0.02364
  58  N 2   s       -0.01533   0.00111   0.08089   0.11546   0.07197  -0.05171
  59  N 2   s       -0.13406   0.02038  -0.41225   0.31166   0.18738  -0.12470
  60  N 2   s       -3.65462   0.51970  -0.29269  -4.86994  -3.00780   2.13965
  61  N 2   px       0.02148  -0.00917   0.02719  -0.06808  -0.03921   0.02861
  62  N 2   py       0.03757  -0.00781   0.01581  -0.03635  -0.02711   0.01685
  63  N 2   pz      -0.03307  -0.01363  -0.01137   0.02724   0.01697  -0.01500
  64  N 2   px      -0.00633  -0.01217   0.03882  -0.23724  -0.10886   0.07648
  65  N 2   py       0.03111  -0.01287   0.02285  -0.09748  -0.12551   0.04603
  66  N 2   pz      -0.03761  -0.03803  -0.01639   0.07360   0.04430  -0.09370
  67  N 2   px       0.34160  -0.05390   0.38051   0.33938   0.00584   0.00785
  68  N 2   py       0.37128  -0.02920   0.21814  -0.01914   0.35086  -0.00195
  69  N 2   pz      -0.25340   0.05777  -0.15905   0.00467   0.01311   0.35563
  70  N 2   px       1.06075  -0.07311  -0.80416   2.49104   1.36476  -0.97020
  71  N 2   py       1.42894   0.00968  -0.46795   1.25125   1.06768  -0.57280
  72  N 2   pz      -0.81583   0.59044   0.33932  -0.91358  -0.56538   0.68564
  73  N 2   d 1      0.00218   0.00064   0.00565  -0.00076   0.00075   0.00013
  74  N 2   d 2     -0.00212   0.00060  -0.00238   0.00010   0.00086   0.00111
  75  N 2   d 3     -0.00115  -0.00121  -0.00281  -0.00070   0.00089  -0.00075
  76  N 2   d 4     -0.00136   0.00237  -0.00412  -0.00019   0.00009  -0.00068
  77  N 2   d 5     -0.00210   0.00033   0.00326  -0.00027  -0.00029  -0.00048
  78  N 2   d 1     -0.00303   0.00445  -0.05099   0.02486  -0.00372  -0.02092
  79  N 2   d 2     -0.00520  -0.00130   0.02145  -0.02105   0.00886  -0.00573
  80  N 2   d 3     -0.00292  -0.00506   0.02510  -0.00809   0.00528   0.02470
  81  N 2   d 4      0.00193   0.01179   0.03733  -0.02067  -0.02239  -0.02764
  82  N 2   d 5     -0.01399   0.00438  -0.02958  -0.01170   0.03797  -0.01642
  83  N 2   d 1     -0.18686  -0.01520   0.12649  -0.36411  -0.30687   0.11884
  84  N 2   d 2      0.13133  -0.01713  -0.05378   0.10547   0.16310  -0.11292
  85  N 2   d 3      0.09546   0.04306  -0.06256   0.19754   0.16609   0.00334
  86  N 2   d 4      0.12135  -0.12224  -0.09329   0.24810   0.11456  -0.27472
  87  N 2   d 5      0.02718  -0.01502   0.07147  -0.33009  -0.00231   0.04546
  88  N 2   f 1      0.00067  -0.00133   0.00425  -0.00423  -0.00430   0.00391
  89  N 2   f 2      0.00230  -0.00073  -0.00278   0.00492   0.00145  -0.00134
  90  N 2   f 3      0.00120   0.00082  -0.00322   0.00176   0.00058  -0.00066
  91  N 2   f 4     -0.00200   0.00174   0.00349  -0.00467  -0.00135   0.00030
  92  N 2   f 5     -0.00003   0.00302   0.00081   0.00119  -0.00063  -0.00274
  93  N 2   f 6     -0.00180  -0.00226   0.00006   0.00161   0.00335   0.00132
  94  N 2   f 7      0.00287  -0.00043   0.00127   0.00107  -0.00191   0.00099
  95  N 2   f 1      0.00148   0.00766  -0.00667   0.04608   0.02477  -0.00650
  96  N 2   f 2     -0.01755   0.00608   0.00213  -0.02011  -0.02531   0.02725
  97  N 2   f 3     -0.01024  -0.00192   0.01664  -0.01541  -0.01403  -0.00519
  98  N 2   f 4      0.01745  -0.00878  -0.00940   0.02321   0.01776  -0.02236
  99  N 2   f 5      0.00131  -0.01714  -0.01136  -0.01431  -0.01035  -0.02099
 100  N 2   f 6      0.01056   0.01433  -0.00939  -0.01871   0.00991   0.01740
 101  N 2   f 7     -0.01619   0.00220  -0.00776   0.02153  -0.02485   0.00115
 102  N 2   g 1      0.00182  -0.00152  -0.00093  -0.00613   0.00347  -0.00299
 103  N 2   g 2     -0.00112  -0.00081   0.00285  -0.00110  -0.00039  -0.00249
 104  N 2   g 3      0.00043   0.00032  -0.00051   0.00152   0.00286   0.00371
 105  N 2   g 4     -0.00254   0.00054   0.00046  -0.00094  -0.00356   0.00069
 106  N 2   g 5      0.00056  -0.00124  -0.00067  -0.00089   0.00007  -0.00496
 107  N 2   g 6     -0.00064   0.00041  -0.00218   0.00159  -0.00083   0.00261
 108  N 2   g 7     -0.00078   0.00252   0.00139  -0.00020   0.00167   0.00710
 109  N 2   g 8     -0.00244  -0.00158   0.00091   0.00241  -0.00727  -0.00094
 110  N 2   g 9     -0.00021   0.00007   0.00182  -0.00281   0.00344   0.00082
 111  N 3   s        0.00104   0.00655  -0.00199  -0.00957   0.01288   0.02172
 112  N 3   s       -0.01507  -0.09218   0.05203  -0.02521   0.03284   0.05541
 113  N 3   s       -0.00230  -0.01305   0.07947  -0.05271   0.07027   0.11886
 114  N 3   s       -0.02460  -0.15094  -0.43157  -0.14342   0.17880   0.29182
 115  N 3   s       -0.64678  -4.03829  -0.18210   2.20054  -2.90801  -4.87796
 116  N 3   px       0.01721   0.03685  -0.01205  -0.01688   0.01526   0.02627
 117  N 3   py       0.01387   0.01210   0.01651   0.01624  -0.02574  -0.03721
 118  N 3   pz       0.00880   0.06785   0.02854   0.02802  -0.03826  -0.06722
 119  N 3   px       0.03184   0.08354  -0.01861  -0.09734   0.04028   0.07197
 120  N 3   py       0.00872  -0.00786   0.02543   0.04699  -0.12253  -0.09948
 121  N 3   pz       0.01226   0.06359   0.04440   0.07760  -0.10485  -0.23502
 122  N 3   px       0.05980   0.03262  -0.15750   0.35476   0.01386   0.00501
 123  N 3   py       0.17063   0.22319   0.21874  -0.01289   0.35526  -0.01563
 124  N 3   pz       0.04321   0.61079   0.37317   0.00206   0.00066   0.35141
 125  N 3   px       0.21260   0.06308   0.35997   0.69189  -0.53952  -0.93480
 126  N 3   py       0.88037   0.72180  -0.49673  -0.57805   1.03417   1.28178
 127  N 3   pz      -0.02983   2.05064  -0.85915  -0.98639   1.31902   2.45973
 128  N 3   d 1     -0.00158   0.00042  -0.00238   0.00120   0.00088   0.00008
 129  N 3   d 2      0.00180   0.00221   0.00569   0.00004   0.00086  -0.00062
 130  N 3   d 3     -0.00144   0.00384   0.00417  -0.00005  -0.00066   0.00030
 131  N 3   d 4      0.00157   0.00134  -0.00410  -0.00059   0.00009  -0.00013
 132  N 3   d 5     -0.00259   0.00025  -0.00076  -0.00091   0.00062  -0.00076
 133  N 3   d 1     -0.00901   0.00435   0.02185  -0.00674   0.00943  -0.02169
 134  N 3   d 2      0.00266  -0.00235  -0.05207  -0.02097  -0.00479   0.02372
 135  N 3   d 3     -0.00618   0.00460  -0.03815  -0.02796   0.03003  -0.00878
 136  N 3   d 4      0.00746   0.01245   0.03735  -0.02851  -0.02270  -0.02195
 137  N 3   d 5     -0.01271   0.00495   0.00723   0.01306   0.02407  -0.01289
 138  N 3   d 1      0.07366   0.02057  -0.05675  -0.11113   0.16049   0.10711
 139  N 3   d 2     -0.08607  -0.19022   0.13657   0.12054  -0.29738  -0.37271
 140  N 3   d 3      0.04692  -0.22778   0.10144   0.03758  -0.08241  -0.37591
 141  N 3   d 4     -0.04819   0.03354  -0.09742  -0.27412   0.10623   0.25089
 142  N 3   d 5      0.11738   0.01428  -0.01777   0.02514   0.14437   0.00904
 143  N 3   f 1      0.00094   0.00024  -0.00202   0.00036  -0.00050   0.00061
 144  N 3   f 2      0.00141  -0.00095  -0.00287  -0.00119   0.00133   0.00510
 145  N 3   f 3      0.00034  -0.00313   0.00509   0.00404  -0.00422  -0.00442
 146  N 3   f 4      0.00154  -0.00289   0.00048   0.00250  -0.00117   0.00048
 147  N 3   f 5     -0.00228  -0.00133  -0.00212   0.00083   0.00346   0.00424
 148  N 3   f 6      0.00368  -0.00017   0.00131  -0.00154  -0.00171   0.00176
 149  N 3   f 7     -0.00297   0.00011   0.00285   0.00099   0.00109  -0.00273
 150  N 3   f 1     -0.00677  -0.00476   0.01416  -0.00627  -0.00766  -0.00307
 151  N 3   f 2     -0.00931   0.00317   0.00263   0.02676  -0.02460  -0.02086
 152  N 3   f 3     -0.00100   0.02699  -0.01197  -0.00470   0.02680   0.04981
 153  N 3   f 4     -0.00801   0.01998   0.00050   0.01472  -0.01241   0.02416
 154  N 3   f 5      0.01330   0.00579  -0.00116   0.02758  -0.00228  -0.02913
 155  N 3   f 6     -0.02199   0.00160  -0.01363  -0.01625  -0.02380  -0.00005
 156  N 3   f 7      0.01781   0.00253  -0.01340  -0.00699   0.02009   0.00669
 157  N 3   g 1     -0.00190  -0.00077   0.00148  -0.00020  -0.00346  -0.00127
 158  N 3   g 2      0.00091   0.00025  -0.00075   0.00231   0.00396  -0.00073
 159  N 3   g 3     -0.00009  -0.00155   0.00247  -0.00254   0.00083  -0.00071
 160  N 3   g 4      0.00156  -0.00309  -0.00058  -0.00423   0.00220  -0.00639
 161  N 3   g 5     -0.00085  -0.00126   0.00036  -0.00532   0.00144  -0.00216
 162  N 3   g 6     -0.00122  -0.00208   0.00213  -0.00252  -0.00423   0.00031
 163  N 3   g 7      0.00152  -0.00058   0.00223   0.00691   0.00318  -0.00113
 164  N 3   g 8     -0.00303   0.00057  -0.00086   0.00104  -0.00610   0.00289
 165  N 3   g 9      0.00031  -0.00034   0.00066   0.00118   0.00165  -0.00112
 166  N 4   s       -0.00762   0.00059  -0.00188   0.00733  -0.02508   0.00688
 167  N 4   s        0.11362  -0.00904   0.05273   0.01823  -0.06375   0.01787
 168  N 4   s        0.01960  -0.00166   0.08020   0.03937  -0.13620   0.03777
 169  N 4   s        0.17822  -0.01350  -0.42185   0.10294  -0.35055   0.09613
 170  N 4   s        4.82277  -0.38540  -0.23785  -1.65211   5.66403  -1.55849
 171  N 4   px       0.00193  -0.00249   0.00799  -0.01189   0.02124  -0.00593
 172  N 4   py       0.05853  -0.00871  -0.03231   0.02505  -0.08977   0.02380
 173  N 4   pz      -0.02537  -0.01184   0.00815  -0.00621   0.02138  -0.00827
 174  N 4   px       0.01762  -0.00776   0.01167  -0.08269   0.05601  -0.01622
 175  N 4   py       0.02833  -0.01282  -0.04825   0.07007  -0.29628   0.06581
 176  N 4   pz      -0.02560  -0.03378   0.01241  -0.01674   0.05685  -0.07660
 177  N 4   px      -0.07126   0.01491   0.11186   0.34947   0.01693  -0.00047
 178  N 4   py       0.68238  -0.04150  -0.43697  -0.00796   0.34137  -0.00369
 179  N 4   pz      -0.21496   0.05766   0.10668  -0.00208   0.01195   0.36336
 180  N 4   px      -0.14392   0.11669  -0.23968   0.51526  -0.73532   0.20564
 181  N 4   py       2.31649  -0.02721   0.96432  -0.87519   3.23884  -0.82000
 182  N 4   pz      -0.72300   0.58596  -0.24225   0.21405  -0.72894   0.45955
 183  N 4   d 1     -0.00057  -0.00003  -0.00330  -0.00029  -0.00030  -0.00046
 184  N 4   d 2      0.00204  -0.00246  -0.00328  -0.00043  -0.00035  -0.00028
 185  N 4   d 3      0.00152   0.00063  -0.00362  -0.00087  -0.00006   0.00120
 186  N 4   d 4      0.00026   0.00131   0.00082  -0.00096  -0.00051  -0.00094
 187  N 4   d 5      0.00253   0.00082  -0.00613   0.00089  -0.00006  -0.00035
 188  N 4   d 1     -0.00987   0.00190   0.03038   0.03440   0.02247  -0.01231
 189  N 4   d 2      0.00103  -0.00967   0.02938  -0.01270   0.02137   0.03599
 190  N 4   d 3     -0.00083   0.00097   0.03265  -0.00925   0.01010  -0.01486
 191  N 4   d 4      0.00396   0.00899  -0.00747  -0.01546  -0.01280  -0.01602
 192  N 4   d 5     -0.00524   0.00553   0.05584  -0.02273   0.01711  -0.01903
 193  N 4   d 1     -0.05203   0.00203  -0.07568   0.24697  -0.22317   0.03381
 194  N 4   d 2     -0.15566   0.11010  -0.07669   0.03624  -0.22438   0.23453
 195  N 4   d 3     -0.14099  -0.01203  -0.08335   0.05998  -0.30371   0.03634
 196  N 4   d 4      0.00631  -0.07194   0.01902  -0.09397   0.02293  -0.09145
 197  N 4   d 5     -0.24329  -0.02783  -0.14249   0.07608  -0.51950   0.08037
 198  N 4   f 1      0.00141   0.00126   0.00307  -0.00213   0.00451  -0.00248
 199  N 4   f 2      0.00116   0.00274   0.00036  -0.00172  -0.00281  -0.00189
 200  N 4   f 3      0.00097   0.00160   0.00244  -0.00208   0.00361  -0.00165
 201  N 4   f 4     -0.00192   0.00265  -0.00415   0.00186  -0.00396  -0.00131
 202  N 4   f 5      0.00092  -0.00047   0.00181   0.00041  -0.00015   0.00084
 203  N 4   f 6     -0.00140   0.00138  -0.00081   0.00244  -0.00310  -0.00045
 204  N 4   f 7      0.00089  -0.00083  -0.00388  -0.00090  -0.00515   0.00296
[...]
   211    3.538818871320e-02
   212    1.671769535061e-02
   213   -8.914612014037e-03
   214   -4.995356506398e-03
   215   -2.450500432505e-03
   216    1.869469692152e-02
   217   -2.515731370491e-02
   218    1.853255483188e-02
   219    1.267916223530e-02
   220    1.641763546924e-03
Sym=X
Ene= 32.803378
Spin=Alpha
Occup=0
     1    2.300722928860e+00
     2    2.512231209809e+00
     3    1.019768866144e+00
     4   -1.538917769099e+00
     5   -7.521277318269e-01
     6   -1.978004920849e-02
     7   -4.598486368995e-03
     8   -1.214116406643e-02
     9    8.597065304747e-02
    10   -7.824879839424e-02
    11    2.009713911634e-01
    12   -2.434236592820e-01
    13    7.351050830708e-01
    14   -1.352150760238e+00
    15   -6.468569274421e-02
    16    1.592668212049e-01
    17   -3.045867335808e-01
    18    7.627548895632e-02
    19    6.247226338831e-02
    20   -3.395595391089e-02
    21   -4.817027384945e-02
    22   -8.610561227158e-02
    23   -2.546387282747e-01
    24   -1.839458381019e-01
    25    1.193590907907e-01
    26    1.683503530153e-01
    27    2.838959421960e-01
    28   -3.724116335465e-01
    29   -3.086250810527e-01
    30    1.724465480451e-01
    31    1.965466677512e-01
    32    3.866580342923e-01
    33   -9.724634223139e-03
    34   -1.369915634262e-02
    35    5.688522400527e-03
    36    4.750876381507e-03
    37    1.109729828389e-02
    38    8.066652588439e-03
    39    1.317116640150e-02
    40   -2.944196027861e-02
    41   -1.723382788581e-01
    42   -6.732240812527e-02
    43    5.830340667065e-02
    44    1.707028247375e-01
    45    1.455013742019e-01
    46    1.463959018767e-01
    47    6.706896441768e-03
    48   -6.883964726322e-03
    49   -3.116416956430e-02
    50    5.910667875581e-03
    51    3.694381935743e-03
    52    2.441138510217e-02
    53    2.202146604612e-02
    54    1.907484358753e-02
    55    1.145247711225e-03
    56    8.077756761226e+00
    57    8.819163959559e+00
    58    3.512516609042e+00
    59   -5.148402835091e+00
    60   -2.493684046146e+00
    61    7.398149259025e-02
    62    3.903933107143e-02
    63   -2.716790070949e-02
    64   -5.528581110746e-01
    65   -3.745642929180e-01
    66    2.948011454049e-01
    67    2.701894576192e+00
    68    2.096368437516e+00
    69   -1.734626830863e+00
    70    6.295672445765e-01
    71    4.791204979411e-01
    72   -3.945179870209e-01
    73   -4.980317920834e-02
    74   -1.261795029324e-01
    75   -8.135850501943e-02
    76    5.255408963711e-03
    77    1.161781432499e-01
    78    1.269826376187e-01
    79    3.692093664905e-01
    80    2.450849941170e-01
    81    2.275552865639e-02
    82   -3.218356729632e-01
    83    2.522749605132e-01
    84    6.293287583854e-01
    85    4.103279578901e-01
    86   -6.766342958876e-02
    87   -6.135396129031e-01
    88    5.345791453727e-04
    89   -2.563055452150e-04
    90    1.151984245422e-02
    91   -5.351574027090e-03
    92   -8.575050181696e-03
    93   -1.473427536870e-02
    94   -5.665612787995e-03
    95    1.716883419398e-01
    96    1.087417274467e-01
    97   -1.199092070490e-01
    98    2.858929725023e-02
    99   -1.092868737921e-01
   100   -6.304843853321e-02
   101   -2.799453907509e-02
   102    2.423324702571e-02
   103    3.031794980654e-02
   104   -3.861451197003e-02
   105   -4.807935722861e-02
   106    2.137415125608e-02
   107   -2.779300685574e-02
   108   -5.569080813066e-02
   109   -4.100712782017e-02
   110    1.838163758368e-02
   111   -3.444424692229e+00
   112   -3.760562225674e+00
   113   -1.499731413417e+00
   114    2.208389887699e+00
   115    1.069865011146e+00
   116    1.121193788630e-02
   117   -2.462096091925e-02
   118   -2.677167205105e-02
   119   -1.301815488752e-01
   120    5.231102273680e-02
   121    2.939694829071e-01
   122    7.841002864887e-01
   123    1.640142616961e-01
   124   -1.747666973562e+00
   125    1.773056680975e-01
   126    2.426648173858e-02
   127   -3.966404800637e-01
   128   -9.386652656348e-02
   129    7.829343321133e-02
   130   -1.107919964892e-02
   131   -7.855269446265e-02
   132   -3.213504452188e-02
   133    2.998879745181e-01
   134   -2.415194211580e-01
   135    3.319657106855e-04
   136    2.659985754646e-01
   137    1.167515373233e-01
   138    4.672570498373e-01
   139   -3.832080011884e-01
   140    6.613195493976e-02
   141    3.487150121527e-01
   142    1.220071863965e-01
   143   -1.349722316462e-02
   144    1.232808289671e-02
   145    1.258146233434e-03
   146   -1.331189627797e-02
   147   -5.140759992188e-03
   148    1.283846524493e-02
   149   -8.287593902090e-03
   150   -5.702598038365e-02
   151    1.100638674441e-01
   152   -1.080368947108e-01
   153   -2.295429513497e-01
   154   -7.792061238277e-02
   155    1.342736538920e-01
   156   -1.354727650439e-02
   157   -1.147611974981e-02
   158    1.603154047492e-02
   159    1.762948558173e-02
   160    3.553702360897e-02
   161    2.066764080801e-02
   162   -2.926684798391e-02
   163   -2.047409313619e-04
   164    1.428765991097e-02
   165    8.281148155820e-03
   166   -7.066525628942e+00
   167   -7.715003288539e+00
   168   -3.068636901438e+00
   169    4.494434076970e+00
   170    2.175056729140e+00
   171   -2.253850409467e-02
   172    7.293585824885e-02
   173   -1.388189932036e-02
   174    9.402178795674e-02
   175   -5.990411357056e-01
   176    2.056500204624e-01
   177   -2.201188091229e-01
   178    3.101917819833e+00
   179   -1.331486018508e+00
   180   -5.965325133218e-02
   181    7.155049087421e-01
   182   -2.989467117966e-01
   183    6.882412533106e-02
   184   -1.519305167981e-02
   185    1.283089394598e-01
   186    1.092750475697e-01
   187   -8.917831187438e-03
   188   -1.843424584104e-01
   189    4.193771125261e-02
   190   -3.955841311748e-01
   191   -3.027933076384e-01
   192    6.797814207919e-02
   193   -3.404168824776e-01
   194    7.868083275451e-02
   195   -6.267327746159e-01
   196   -5.807563764711e-01
   197    4.435893265964e-03
   198    6.056177796895e-04
   199    4.066005151156e-03
   200    4.974563961605e-03
   201    1.559498332850e-02
   202    5.209226591524e-03
   203   -1.572065550599e-02
   204   -5.104960850040e-03
   205    2.237750272784e-01
   206   -9.401967420073e-02
   207   -4.261799421812e-02
   208    9.712889661427e-02
   209   -3.720019074582e-02
   210   -9.683469513499e-02
   211   -2.765956063701e-02
   212   -3.348295107719e-02
   213    1.605530671468e-02
   214    2.798164304147e-02
   215    6.516886552070e-03
   216   -4.078462478629e-02
   217    5.501350670040e-02
   218   -3.235569510656e-02
   219   -3.069729270488e-02
   220   -2.536380923464e-02
Sym=X
Ene= 32.808823
Spin=Alpha
Occup=0
     1    9.354607402586e+00
     2    1.021334137433e+01
     3    4.067223572959e+00
     4   -5.963339302218e+00
     5   -2.882879146920e+00
     6   -7.362059804862e-02
     7    2.903369719979e-03
     8   -7.063467809765e-02
     9    5.988117505787e-01
    10    3.884605457016e-02
    11    5.909113744767e-01
    12   -3.070126853168e+00
    13   -3.845017298687e-01
    14   -3.105545141513e+00
    15   -7.083666247215e-01
    16   -8.283914069663e-02
    17   -7.150135327423e-01
    18    6.016855434220e-02
    19    1.695202300289e-01
    20    3.264662679922e-02
    21    1.013865933164e-01
    22    2.953227318317e-02
    23   -1.758425114276e-01
    24   -4.627906407722e-01
    25   -1.117144537607e-01
    26   -2.803049259198e-01
    27   -1.000283136013e-01
    28   -3.079406988237e-01
    29   -8.933854160472e-01
    30   -1.533993452653e-01
    31   -5.128398628789e-01
    32   -1.373226223872e-01
    33   -2.596297176480e-03
    34   -1.853971292129e-03
    35    4.498468744542e-03
    36   -6.338076977235e-04
    37   -1.832716404233e-02
    38   -7.579895304216e-04
    39    6.556717245273e-03
    40   -2.978154056281e-02
    41   -5.002543481773e-02
    42   -1.318973621352e-01
    43   -8.032210860551e-02
    44    3.959111109654e-02
    45   -7.123919879961e-02
    46   -1.547752195922e-01
    47   -3.590058149452e-02
    48    1.181397232633e-02
    49   -7.321184627711e-02
    50    4.932884087119e-02
    51    2.772013258682e-02
    52    3.107589486180e-02
    53    5.005332768850e-03
    54    6.768962657730e-03
    55   -6.624131260789e-02
    56   -4.627391578776e+00
    57   -5.051896659032e+00
    58   -1.995143765417e+00
    59    2.884849242067e+00
    60    1.388898752098e+00
    61   -4.115458961409e-02
    62   -2.340941635827e-02
    63    2.358917543427e-02
    64    3.755510991837e-01
    65    2.114512561478e-01
    66   -4.604784838320e-02
    67   -2.025708310092e+00
    68   -1.141024778442e+00
    69   -1.856687817407e-01
    70   -4.626418626972e-01
    71   -2.606317183066e-01
    72   -3.035314126166e-02
    73    8.193362284689e-02
    74   -4.936467579250e-02
    75    1.364847560502e-02
    76   -7.725457967465e-02
    77   -9.943221232211e-02
    78   -2.564117731799e-01
    79    1.918558319090e-01
    80   -2.197862100525e-02
    81    2.281880849901e-01
    82    2.898688260157e-01
    83   -4.069671489387e-01
    84    1.885416541506e-01
    85   -6.259443472389e-02
    86    3.690888100917e-01
    87    4.970801698769e-01
    88    8.455143543563e-03
    89    1.990988582703e-02
    90    1.439076000709e-03
    91   -3.997360311477e-03
    92   -7.941310186003e-03
    93    1.321015079639e-03
    94   -6.433840762967e-03
    95    5.492775162524e-02
    96    1.441691611132e-01
    97    7.172514180546e-02
    98   -1.855704310458e-01
    99   -2.720558087032e-02
   100   -9.741530888718e-02
   101   -1.634065505284e-01
   102   -1.297611597098e-03
   103   -3.526199889458e-02
   104    1.436069385420e-02
   105   -5.238896037655e-04
   106   -1.337342248178e-02
   107    2.982786008858e-02
   108    3.863877507669e-02
   109    2.746736298990e-02
   110    1.835695369984e-02
   111   -4.840595859361e+00
   112   -5.285221234586e+00
   113   -2.121036649334e+00
   114    3.150174227900e+00
   115    1.528229562836e+00
   116    2.558884841990e-02
   117   -2.325895111960e-02
   118   -3.817096340309e-02
   119   -5.780151217619e-02
   120    2.171114754745e-01
   121    3.795360742907e-01
   122   -1.524573568219e-01
   123   -1.210342386115e+00
   124   -2.187282154392e+00
   125   -2.005074304239e-02
   126   -2.772657171646e-01
   127   -4.990017020777e-01
   128   -1.093442328407e-01
   129   -4.660340218036e-02
   130   -1.025376487984e-01
   131    3.024666828703e-02
   132    1.395280107048e-02
   133    3.431879516751e-01
   134    1.889394301039e-01
   135    3.060692213239e-01
   136   -1.024786363636e-01
   137   -2.049582884529e-02
   138    5.389468521832e-01
   139    1.787111591796e-01
   140    5.184143346964e-01
   141   -1.589442820457e-01
   142   -6.475892441199e-02
   143   -1.488143841704e-02
   144   -9.806966573427e-03
   145   -9.872912688411e-03
   146    1.785066867101e-02
   147   -8.782308778153e-03
   148    4.943620565353e-03
   149   -2.438373983956e-04
   150   -1.534782619821e-01
   151   -1.809293220016e-01
   152   -1.739519011017e-01
   153    4.111509110795e-02
   154   -3.037928516213e-02
   155   -7.039084454670e-02
   156    2.890735766857e-02
   157    1.602336391807e-02
   158    4.642670361105e-02
   159    1.834828315194e-02
   160    2.270899902835e-02
   161    3.184878077975e-02
   162   -1.735726819820e-03
   163   -5.990531992155e-03
   164    2.765396488730e-03
   165    2.888962591007e-02
   166    1.108605145319e-01
   167    1.210401060682e-01
   168    4.835367208164e-02
   169   -7.122728617702e-02
   170   -3.435713910095e-02
   171    5.775770078865e-03
   172    1.674440465694e-03
   173    5.950505033690e-03
   174    7.238680833501e-02
   175    4.715082271260e-02
   176    7.408569661818e-02
   177   -7.250943073276e-01
   178   -4.218275640668e-01
   179   -7.408672514373e-01
   180   -1.556970996468e-01
   181   -9.166313684886e-02
   182   -1.600464231914e-01
   183   -3.251922016822e-02
   184   -8.771992676681e-02
   185    5.956762790078e-02
   186   -5.840741785743e-02
   187    5.683429826903e-02
   188    1.105539396505e-01
   189    2.875497520727e-01
   190   -2.055769633899e-01
   191    1.985212074169e-01
   192   -1.967255341489e-01
   193    1.546571749197e-01
   194    3.829234372623e-01
   195   -2.835122365163e-01
   196    2.757386348835e-01
   197   -2.718953433703e-01
   198    8.525276275856e-03
   199   -1.282631289804e-03
   200    1.106967032238e-02
   201    5.130328033427e-03
   202    1.646978388023e-02
   203    9.672149327848e-03
   204    1.489344030021e-02
   205    8.772827002372e-02
   206   -5.647172185298e-02
   207    9.110766695492e-02
   208   -6.992974914004e-03
   209    2.727920729476e-01
   210    5.574879701352e-02
   211    1.213063549840e-01
   212   -4.798476910156e-03
   213   -1.136340112567e-02
   214    5.647169856285e-03
   215   -1.320085213170e-03
   216   -1.617915663564e-02
   217   -2.920370837874e-02
   218   -1.581839615237e-02
   219   -5.368900808588e-03
   220   -1.767374920378e-03
Sym=X
Ene= 32.816158
Spin=Alpha
Occup=0
     1    2.545312117813e+00
     2    2.778689111702e+00
     3    1.087167431546e+00
     4   -1.548959201959e+00
     5   -7.410022961311e-01
     6   -1.690180207205e-02
     7   -6.523244128681e-03
     8   -2.599478496225e-02
     9    2.206436597037e-01
    10   -7.227951617536e-02
    11    1.091623200262e-01
    12   -1.364059737844e+00
    13    7.493749136429e-01
    14   -2.385913997522e-01
    15   -3.048600723975e-01
    16    1.608135939126e-01
    17   -6.314190519397e-02
    18   -7.912070166911e-02
    19    6.341729078134e-02
    20   -8.452572528706e-02
    21    4.424652399777e-02
    22   -3.571385004756e-02
    23    2.784516193361e-01
    24   -1.763278688045e-01
    25    2.849707697901e-01
    26   -1.384861200989e-01
    27    1.292140141201e-01
    28    3.557935326413e-01
    29   -3.105688626825e-01
    30    3.822843205431e-01
    31   -2.317731379659e-01
    32    1.813301545874e-01
    33    1.591895329007e-02
    34    1.223225934353e-02
    35    1.306814846113e-02
    36   -4.317403370533e-03
    37    1.266599595855e-02
    38   -4.211580697754e-03
    39    1.008395839616e-02
    40    2.146726138503e-01
    41    6.585928288392e-02
    42    1.476672779345e-01
    43   -5.026442182231e-02
    44    1.722739911495e-01
    45    9.949934179516e-03
    46   -2.574927919643e-02
    47    9.370710969252e-03
    48    2.011917110981e-02
    49   -6.100446206617e-03
    50    1.420787048745e-02
    51    2.989620679427e-02
    52    1.383370905006e-02
    53    4.599034260873e-03
    54    1.092991283507e-02
    55   -2.263683096136e-02
    56   -3.435963274989e+00
    57   -3.751456732314e+00
    58   -1.491725095293e+00
    59    2.176796343869e+00
    60    1.050279065489e+00
    61   -2.773398330914e-02
    62   -2.463713176924e-02
    63    1.089768313848e-02
    64    2.979575664404e-01
    65    5.206642484101e-02
    66   -1.289332978274e-01
    67   -1.737514067620e+00
    68    1.708974828006e-01
    69    7.831171660611e-01
    70   -3.936581548080e-01
    71    2.541833397173e-02
    72    1.769338030207e-01
    73   -1.916534338452e-02
    74    7.877925440292e-02
    75   -3.165035882897e-02
    76   -1.218115026199e-01
    77   -1.078325211002e-02
    78    7.537296523673e-02
    79   -2.439279991667e-01
    80    1.141666378079e-01
    81    3.934760838759e-01
    82   -2.070560790006e-03
    83    6.085859112359e-02
    84   -3.864333428075e-01
    85    1.201238877864e-01
    86    5.824347060771e-01
    87    6.440125214625e-02
    88    2.142806434755e-03
    89   -2.087109446036e-03
    90   -8.278159757693e-03
    91    1.751754323872e-02
    92   -4.539570296000e-03
    93   -1.826811719624e-02
    94   -1.853286558378e-04
    95    3.502803951907e-02
    96   -1.401759160364e-01
    97    1.431225205459e-02
    98    1.713975669208e-01
    99   -7.674383935657e-02
   100   -1.898917578812e-01
   101   -1.091023089939e-01
   102   -1.238218072805e-02
   103   -3.030048929538e-02
   104    7.182337805584e-04
   105    3.217231580858e-02
   106   -6.799305039951e-03
   107   -1.145283378268e-02
   108    2.187555299673e-02
   109    1.793895056172e-02
   110    1.733081735522e-02
   111    8.049510168751e+00
   112    8.788622060134e+00
   113    3.499426377957e+00
   114   -5.130013681848e+00
   115   -2.475867322635e+00
   116   -2.627081029188e-02
   117    3.917300638410e-02
   118    7.464941860084e-02
   119    2.903688227231e-01
   120   -3.734378776193e-01
   121   -5.520771689739e-01
   122   -1.721390731642e+00
   123    2.083799915286e+00
   124    2.679979981803e+00
   125   -3.889174190337e-01
   126    4.750087104924e-01
   127    6.219323478525e-01
   128    2.809866408248e-02
   129   -1.237104086743e-01
   130    1.154124391698e-01
   131   -3.881986129829e-02
   132   -8.075103474852e-02
   133   -3.777716563214e-02
   134    3.638956016189e-01
   135   -3.177890598225e-01
   136    1.164790780212e-01
   137    2.441243545273e-01
   138   -1.771367212315e-01
   139    6.159996620086e-01
   140   -6.085508396349e-01
   141    1.769046739909e-01
   142    4.057390797818e-01
   143   -1.208472817181e-02
   144   -5.840126617839e-03
   145   -9.620598080401e-03
   146   -9.021987770716e-03
   147   -9.292098624445e-03
   148   -2.474301427310e-03
   149    9.513089691268e-03
   150   -1.181184960556e-01
   151   -7.246361090649e-02
   152    4.041860514258e-03
   153    5.144873752355e-02
   154   -1.046953072750e-01
   155    1.510035862606e-01
   156   -1.200950640487e-01
   157    6.046934960953e-03
   158   -4.456766229819e-02
   159    8.449362162642e-03
   160   -6.541844495461e-02
   161   -4.068855318003e-02
   162    1.931348272417e-05
   163    2.506666161182e-02
   164   -1.874989038999e-02
   165   -5.562741786841e-02
   166   -7.022628092515e+00
   167   -7.667574478773e+00
   168   -3.057592857108e+00
   169    4.486419877882e+00
   170    2.167385603003e+00
   171   -1.387165905177e-02
   172    7.200101867823e-02
   173   -2.198768247646e-02
   174    2.076168240500e-01
   175   -5.953620846487e-01
   176    9.259657144622e-02
   177   -1.348281568932e+00
   178    3.093008560719e+00
   179   -2.236132823665e-01
   180   -3.019252106260e-01
   181    7.125455160767e-01
   182   -5.911579064250e-02
   183    6.229244360605e-02
   184   -1.599967263870e-02
   185   -8.361523319834e-03
   186    1.120861350350e-01
   187    1.293960740392e-01
   188   -1.760663896462e-01
   189    4.456171814357e-02
   190    6.460291313150e-02
   191   -3.054641958471e-01
   192   -3.995808386064e-01
   193   -3.421873766300e-01
   194    8.272631635920e-02
   195    2.317514466059e-03
   196   -5.741922436144e-01
   197   -6.324251345624e-01
   198   -1.464151216509e-02
   199    1.187475482314e-02
   200   -5.737876917360e-03
   201   -5.483256857008e-03
   202    5.622588420596e-03
   203    1.073112523514e-02
   204    3.317177992949e-03
   205   -1.388422752968e-02
   206   -5.634465286500e-02
   207   -2.249544480674e-02
   208   -1.357064868506e-01
   209   -3.478893881086e-02
   210    2.349344975578e-01
   211   -4.100953363940e-02
   212   -3.787175088939e-02
   213    2.285102759457e-02
   214   -7.530572481985e-03
   215    2.559973373027e-03
   216   -3.872812990808e-02
   217    5.200220836095e-02
   218   -4.793475043967e-02
   219   -2.534576948589e-02
   220    1.369498900283e-02

======= END OF MOLDEN-FORMATTED INPUT FILE =======


        *************************************************************
        *                                                           *
        *  Thank you very much for using Q-Chem.  Have a nice day.  *
        *                                                           *
        *************************************************************


0 sent ACK to 0 
now end server 0 ... 
