[Molden Format]
[GTO]
    1 0
 s   7 1.00
    1712.8415853   -0.0053934100
     257.6481268   -0.0402215800
      58.4582458   -0.1793114500
      16.1983679   -0.4637631800
       5.0052601   -0.4417142300
       0.5873186    0.0000000000
       0.1876459    0.0000000000
 s   7 1.00
    1712.8415853    0.0000000000
     257.6481268    0.0000000000
      58.4582458    0.0000000000
      16.1983679    0.0000000000
       5.0052601    0.0000000000
       0.5873186    1.0000000000
       0.1876459    0.0000000000
 s   7 1.00
    1712.8415853    0.0000000000
     257.6481268    0.0000000000
      58.4582458    0.0000000000
      16.1983679    0.0000000000
       5.0052601    0.0000000000
       0.5873186    0.0000000000
       0.1876459    1.0000000000
 p   4 1.00
      13.5714702   -0.0400724000
       2.9257373   -0.2180704500
       0.7992775   -0.5129446600
       0.2195435    0.0000000000
 p   4 1.00
      13.5714702    0.0000000000
       2.9257373    0.0000000000
       0.7992775    0.0000000000
       0.2195435    1.0000000000
 d   1 1.00
       1.0000000    1.0000000000

    2 0
 s   7 1.00
    1712.8415853   -0.0053934100
     257.6481268   -0.0402215800
      58.4582458   -0.1793114500
      16.1983679   -0.4637631800
       5.0052601   -0.4417142300
       0.5873186    0.0000000000
       0.1876459    0.0000000000
 s   7 1.00
    1712.8415853    0.0000000000
     257.6481268    0.0000000000
      58.4582458    0.0000000000
      16.1983679    0.0000000000
       5.0052601    0.0000000000
       0.5873186    1.0000000000
       0.1876459    0.0000000000
 s   7 1.00
    1712.8415853    0.0000000000
     257.6481268    0.0000000000
      58.4582458    0.0000000000
      16.1983679    0.0000000000
       5.0052601    0.0000000000
       0.5873186    0.0000000000
       0.1876459    1.0000000000
 p   4 1.00
      13.5714702   -0.0400724000
       2.9257373   -0.2180704500
       0.7992775   -0.5129446600
       0.2195435    0.0000000000
 p   4 1.00
      13.5714702    0.0000000000
       2.9257373    0.0000000000
       0.7992775    0.0000000000
       0.2195435    1.0000000000
 d   1 1.00
       1.0000000    1.0000000000

    3 0
 s   7 1.00
    1712.8415853   -0.0053934100
     257.6481268   -0.0402215800
      58.4582458   -0.1793114500
      16.1983679   -0.4637631800
       5.0052601   -0.4417142300
       0.5873186    0.0000000000
       0.1876459    0.0000000000
 s   7 1.00
    1712.8415853    0.0000000000
     257.6481268    0.0000000000
      58.4582458    0.0000000000
      16.1983679    0.0000000000
       5.0052601    0.0000000000
       0.5873186    1.0000000000
       0.1876459    0.0000000000
 s   7 1.00
    1712.8415853    0.0000000000
     257.6481268    0.0000000000
      58.4582458    0.0000000000
      16.1983679    0.0000000000
       5.0052601    0.0000000000
       0.5873186    0.0000000000
       0.1876459    1.0000000000
 p   4 1.00
      13.5714702   -0.0400724000
       2.9257373   -0.2180704500
       0.7992775   -0.5129446600
       0.2195435    0.0000000000
 p   4 1.00
      13.5714702    0.0000000000
       2.9257373    0.0000000000
       0.7992775    0.0000000000
       0.2195435    1.0000000000
 d   1 1.00
       1.0000000    1.0000000000

    4 0
 s   7 1.00
    1712.8415853   -0.0053934100
     257.6481268   -0.0402215800
      58.4582458   -0.1793114500
      16.1983679   -0.4637631800
       5.0052601   -0.4417142300
       0.5873186    0.0000000000
       0.1876459    0.0000000000
 s   7 1.00
    1712.8415853    0.0000000000
     257.6481268    0.0000000000
      58.4582458    0.0000000000
      16.1983679    0.0000000000
       5.0052601    0.0000000000
       0.5873186    1.0000000000
       0.1876459    0.0000000000
 s   7 1.00
    1712.8415853    0.0000000000
     257.6481268    0.0000000000
      58.4582458    0.0000000000
      16.1983679    0.0000000000
       5.0052601    0.0000000000
       0.5873186    0.0000000000
       0.1876459    1.0000000000
 p   4 1.00
      13.5714702   -0.0400724000
       2.9257373   -0.2180704500
       0.7992775   -0.5129446600
       0.2195435    0.0000000000
 p   4 1.00
      13.5714702    0.0000000000
       2.9257373    0.0000000000
       0.7992775    0.0000000000
       0.2195435    1.0000000000
 d   1 1.00
       1.0000000    1.0000000000

[SCFCONV]
scf-first  1  THROUGH  54
     -215.8458081826
     -216.7171297838
     -216.8043304356
     -216.8062210852
     -216.8063416061
     -216.8064206861
     -216.8064418193
     -216.8064531566
     -216.8064665237
     -216.8064789446
     -216.8064950851
     -216.8065111438
     -216.8065308450
     -216.8065504699
     -216.8065744478
     -216.8065982225
     -216.8066272358
     -216.8066558606
     -216.8066906928
     -216.8067248592
     -216.8067662582
     -216.8068065753
     -216.8068551605
     -216.8069020581
     -216.8069581948
     -216.8070117997
     -216.8070754506
     -216.8071354525
     -216.8072060308
     -216.8072715685
     -216.8073478326
     -216.8074174443
     -216.8074974842
     -216.8075691634
     -216.8076505198
     -216.8077218979
     -216.8084977814
     -216.8085703549
     -216.8086121636
     -216.8086335486
     -216.8086481595
     -216.8086619813
     -216.8086755730
     -216.8087027880
     -216.8087070447
     -216.8087108108
     -216.8087109437
     -216.8087109975
     -216.8087110247
     -216.8087110499
     -216.8087110578
     -216.8087110610
     -216.8087110620
     -216.8087110621
[TITLE]
*** Dalton2013 interface to Molden, wave function type : HF             2Jun15
[Atoms] AU
N          1     7        -1.2141710420         0.0000000000         1.192911653
N          2     7         1.3902700099        -0.8023365584         0.582123105
N          3     7        -0.5808226486        -0.8023365584        -1.377397541
N          4     7         0.4047236807         1.6046731167        -0.397637217
[5D7F]
[9G]
[MO]
Sym= A
Ene=  -16.1301
Spin= Alpha
Occup= 0.0000
    1       -0.955546
    2        0.031606
    3       -0.019175
    4       -0.002582
    5       -0.000181
    6        0.002948
    7       -0.004674
    8       -0.000303
    9        0.005335
   10        0.000200
   11       -0.000124
   12        0.000042
   13       -0.000154
   14        0.000240
   15       -0.263128
   16        0.008930
   17       -0.001544
   18        0.000803
   19       -0.000560
   20        0.000607
   21       -0.000044
   22       -0.000755
   23        0.001847
   24        0.000352
   25        0.000263
   26       -0.000074
   27       -0.000560
   28        0.000406
   29       -0.009603
   30        0.000732
   31        0.004577
   32       -0.000123
   33       -0.000087
   34       -0.000023
   35       -0.000901
   36       -0.000108
   37        0.001690
   38       -0.000793
   39       -0.000001
   40       -0.000502
   41       -0.000025
   42        0.000044
   43       -0.009211
   44        0.000701
   45        0.004650
   46       -0.000021
   47        0.000139
   48        0.000057
   49       -0.001051
   50       -0.000495
   51        0.001554
   52        0.000151
   53        0.000393
   54        0.000643
   55        0.000257
   56       -0.000431
Sym= A
Ene=  -16.1297
Spin= Alpha
Occup= 0.0000
    1       -0.263097
    2        0.008412
    3       -0.009510
    4       -0.000785
    5        0.000050
    6        0.000657
    7       -0.003192
    8        0.000838
    9        0.001092
   10       -0.000271
   11       -0.000453
   12        0.000123
   13        0.000567
   14       -0.000297
   15        0.955547
   16       -0.031421
   17        0.021249
   18       -0.003065
   19        0.001841
   20       -0.001520
   21       -0.006359
   22        0.003511
   23       -0.002291
   24        0.000224
   25       -0.000200
   26        0.000031
   27       -0.000132
   28        0.000208
   29        0.005071
   30       -0.000397
   31       -0.002598
   32       -0.000093
   33        0.000103
   34        0.000063
   35       -0.002037
   36        0.000838
   37       -0.000359
   38        0.000081
   39        0.000799
   40       -0.000037
   41        0.000346
   42        0.000096
   43        0.005530
   44       -0.000411
   45       -0.002618
   46       -0.000146
   47       -0.000033
   48        0.000007
   49       -0.001947
   50        0.001055
   51       -0.000287
   52       -0.000267
   53        0.000257
   54       -0.000318
   55       -0.000528
   56       -0.000499
Sym= A
Ene=  -16.1053
Spin= Alpha
Occup= 0.0000
    1        0.010483
    2        0.000095
    3        0.005750
    4       -0.000107
    5        0.000078
    6       -0.000041
    7        0.000319
    8        0.000942
    9       -0.001717
   10       -0.000463
   11        0.000729
   12        0.000155
   13       -0.000086
   14       -0.000314
   15        0.010494
   16        0.000082
   17        0.005804
   18        0.000109
   19        0.000011
   20       -0.000085
   21       -0.000477
   22        0.001202
   23       -0.001546
   24        0.000126
   25       -0.000657
   26        0.000415
   27        0.000061
   28        0.000488
   29       -0.592940
   30        0.019828
   31       -0.009635
   32       -0.000838
   33       -0.001163
   34       -0.002055
   35       -0.001121
   36       -0.000590
   37       -0.003982
   38        0.000205
   39       -0.000147
   40       -0.000334
   41        0.000330
   42       -0.000326
   43       -0.794186
   44        0.026358
   45       -0.014571
   46        0.000787
   47        0.003128
   48       -0.000754
   49        0.000998
   50        0.005079
   51       -0.002363
   52        0.000107
   53       -0.000098
   54       -0.000258
   55        0.000197
   56       -0.000214
Sym= A
Ene=  -16.1050
Spin= Alpha
Occup= 0.0000
    1       -0.001877
    2       -0.000012
    3       -0.000840
    4        0.000060
    5        0.000120
    6        0.000071
    7        0.000794
    8        0.001874
    9        0.001077
   10        0.000525
   11       -0.000016
   12        0.000567
   13       -0.000035
   14       -0.000373
   15       -0.001278
   16       -0.000014
   17       -0.000874
   18        0.000031
   19        0.000124
   20        0.000067
   21        0.000913
   22        0.001831
   23        0.001045
   24        0.000280
   25        0.000460
   26        0.000212
   27        0.000550
   28        0.000258
   29        0.794166
   30       -0.026014
   31        0.019286
   32        0.001112
   33        0.001681
   34        0.002558
   35        0.002440
   36        0.004145
   37        0.004837
   38        0.000053
   39       -0.000206
   40       -0.000481
   41        0.000273
   42       -0.000336
   43       -0.592931
   44        0.019283
   45       -0.015729
   46        0.000612
   47        0.002290
   48       -0.000399
   49        0.001702
   50        0.005288
   51        0.000214
   52       -0.000358
   53        0.000108
   54        0.000276
   55       -0.000518
   56        0.000437
Sym= A
Ene=   -2.0316
Spin= Alpha
Occup= 0.0000
    1       -0.131591
    2       -0.272131
    3       -0.061550
    4        0.099823
    5        0.002074
    6       -0.103064
    7       -0.026551
    8       -0.000871
    9        0.027695
   10       -0.006167
   11        0.021817
   12       -0.000229
   13       -0.010679
   14       -0.000589
   15       -0.130671
   16       -0.270367
   17       -0.060283
   18       -0.114902
   19        0.066932
   20       -0.052084
   21        0.030146
   22       -0.017836
   23        0.014160
   24        0.008353
   25       -0.012635
   26        0.006862
   27       -0.009296
   28        0.016263
   29       -0.129153
   30       -0.263342
   31       -0.064686
   32        0.047607
   33        0.066918
   34        0.113225
   35       -0.013790
   36       -0.018712
   37       -0.033085
   38       -0.011707
   39       -0.011558
   40       -0.016386
   41        0.002002
   42       -0.006673
   43       -0.128282
   44       -0.261663
   45       -0.063584
   46       -0.033761
   47       -0.131106
   48        0.031383
   49        0.009322
   50        0.037466
   51       -0.009778
   52        0.010461
   53        0.002489
   54        0.009111
   55        0.017238
   56       -0.009380
Sym= A
Ene=   -1.3863
Spin= Alpha
Occup= 0.0000
    1       -0.146169
    2       -0.319834
    3       -0.272113
    4       -0.082913
    5       -0.083194
    6       -0.114318
    7       -0.032004
    8        0.020445
    9        0.071428
   10       -0.022688
   11        0.003017
   12       -0.010245
   13        0.009735
   14        0.007581
   15        0.147825
   16        0.323500
   17        0.274568
   18       -0.067651
   19       -0.144043
   20        0.024916
   21       -0.042504
   22        0.064089
   23       -0.026043
   24       -0.000182
   25        0.000954
   26       -0.011713
   27       -0.021459
   28       -0.012807
   29       -0.121878
   30       -0.263936
   31       -0.231460
   32       -0.147694
   33       -0.010479
   34        0.086265
   35        0.012393
   36       -0.027208
   37       -0.065687
   38       -0.019513
   39        0.016521
   40       -0.006433
   41        0.005864
   42        0.011921
   43        0.121766
   44        0.263631
   45        0.231425
   46       -0.157937
   47        0.045419
   48       -0.039965
   49        0.020255
   50       -0.066009
   51        0.020692
   52       -0.000507
   53        0.005210
   54       -0.009271
   55       -0.013037
   56       -0.024014
Sym= A
Ene=   -1.3816
Spin= Alpha
Occup= 0.0000
    1        0.111928
    2        0.244745
    3        0.211460
    4       -0.022862
    5       -0.180178
    6        0.002412
    7        0.046165
    8        0.038781
    9       -0.035779
   10       -0.000596
   11       -0.003685
   12       -0.021761
   13       -0.000111
   14        0.022045
   15       -0.138883
   16       -0.304419
   17       -0.258751
   18       -0.048421
   19       -0.124196
   20       -0.108600
   21        0.064784
   22       -0.001191
   23        0.044003
   24       -0.009964
   25       -0.019249
   26        0.000428
   27       -0.015057
   28       -0.012342
   29       -0.128717
   30       -0.279066
   31       -0.246604
   32        0.113035
   33       -0.116309
   34        0.036050
   35       -0.046951
   36       -0.005068
   37       -0.057854
   38       -0.007511
   39       -0.018740
   40        0.011867
   41       -0.017091
   42       -0.000679
   43        0.154619
   44        0.335253
   45        0.292986
   46        0.106882
   47       -0.032872
   48       -0.097592
   49       -0.042477
   50       -0.062534
   51        0.036416
   52        0.004240
   53       -0.010171
   54       -0.014832
   55        0.009223
   56        0.015570
Sym= A
Ene=   -1.3702
Spin= Alpha
Occup= 0.0000
    1       -0.152491
    2       -0.336945
    3       -0.283207
    4        0.081021
    5       -0.046858
    6        0.087886
    7       -0.059165
    8        0.006013
    9        0.028836
   10        0.018724
   11        0.002591
   12       -0.006896
   13       -0.012283
   14        0.006759
   15       -0.127172
   16       -0.281376
   17       -0.233960
   18       -0.055332
   19       -0.015799
   20        0.126341
   21        0.050699
   22       -0.020961
   23       -0.003264
   24        0.015127
   25        0.014245
   26       -0.011252
   27       -0.011520
   28        0.004987
   29        0.147674
   30        0.320790
   31        0.279037
   32       -0.039631
   33       -0.142951
   34        0.078252
   35        0.032494
   36        0.068475
   37        0.034911
   38       -0.019443
   39        0.001584
   40        0.012408
   41       -0.011574
   42        0.012896
   43        0.121028
   44        0.263028
   45        0.225798
   46        0.041433
   47        0.048734
   48        0.171425
   49       -0.023401
   50       -0.062976
   51       -0.030232
   52       -0.011206
   53        0.007170
   54        0.025695
   55       -0.007674
   56        0.009921
Sym= A
Ene=   -1.0178
Spin= Alpha
Occup= 0.0000
    1       -0.063185
    2       -0.130548
    3       -0.157021
    4       -0.200441
    5       -0.016185
    6        0.230085
    7        0.081949
    8        0.009220
    9       -0.099264
   10        0.009735
   11       -0.035104
   12        0.000369
   13        0.016459
   14        0.001521
   15       -0.062905
   16       -0.129984
   17       -0.156748
   18        0.234040
   19       -0.144972
   20        0.128208
   21       -0.096247
   22        0.061543
   23       -0.057651
   24       -0.013214
   25        0.020806
   26       -0.010705
   27        0.014263
   28       -0.025849
   29       -0.075657
   30       -0.160067
   31       -0.182395
   32       -0.098330
   33       -0.121178
   34       -0.251273
   35        0.040392
   36        0.046986
   37        0.105612
   38        0.020618
   39        0.018973
   40        0.025230
   41       -0.001740
   42        0.009430
   43       -0.075653
   44       -0.160190
   45       -0.182390
   46        0.063857
   47        0.272299
   48       -0.089346
   49       -0.025152
   50       -0.111571
   51        0.040303
   52       -0.015969
   53       -0.004884
   54       -0.017129
   55       -0.027085
   56        0.013935
Sym= A
Ene=   -0.9199
Spin= Alpha
Occup= 0.0000
    1       -0.103343
    2       -0.252406
    3       -0.143667
    4       -0.101878
    5       -0.059562
    6        0.331066
    7        0.084729
    8        0.029162
    9       -0.198271
   10        0.020880
   11       -0.008704
   12       -0.008290
   13       -0.003667
   14        0.003072
   15        0.107053
   16        0.261359
   17        0.150006
   18       -0.178207
   19        0.185651
   20       -0.240482
   21        0.128653
   22       -0.114872
   23        0.136101
   24       -0.008887
   25       -0.013765
   26        0.013729
   27        0.003901
   28        0.008504
   29       -0.010231
   30       -0.024434
   31       -0.018158
   32        0.240221
   33       -0.082437
   34       -0.086086
   35       -0.114134
   36        0.041019
   37        0.043722
   38        0.010178
   39       -0.018425
   40        0.012072
   41       -0.018350
   42       -0.017836
   43        0.007218
   44        0.017345
   45        0.012436
   46        0.232339
   47       -0.088582
   48       -0.038811
   49       -0.109557
   50        0.044567
   51        0.017897
   52       -0.001248
   53       -0.001234
   54       -0.005768
   55        0.019699
   56        0.027151
Sym= A
Ene=   -0.9036
Spin= Alpha
Occup= 0.0000
    1       -0.002173
    2       -0.005685
    3       -0.000258
    4       -0.102554
    5       -0.265880
    6       -0.090303
    7        0.054439
    8        0.133148
    9        0.044417
   10       -0.009484
   11        0.003759
   12       -0.020187
   13        0.013370
   14        0.024153
   15        0.012750
   16        0.031040
   17        0.015937
   18       -0.119781
   19       -0.202763
   20       -0.113194
   21        0.064589
   22        0.096159
   23        0.059580
   24       -0.000196
   25       -0.013008
   26        0.003423
   27       -0.021525
   28       -0.021074
   29        0.106076
   30        0.254794
   31        0.172717
   32        0.073004
   33       -0.008816
   34        0.312871
   35       -0.047948
   36       -0.014582
   37       -0.187726
   38       -0.022289
   39       -0.006877
   40        0.004985
   41       -0.004636
   42        0.001093
   43       -0.117580
   44       -0.282841
   45       -0.189114
   46        0.078784
   47        0.261539
   48       -0.183577
   49       -0.050880
   50       -0.171946
   51        0.100290
   52        0.005142
   53       -0.002742
   54       -0.017230
   55       -0.006744
   56        0.005249
Sym= A
Ene=   -0.8956
Spin= Alpha
Occup= 0.0000
    1       -0.052794
    2       -0.128793
    3       -0.069295
    4       -0.226285
    5       -0.189234
    6       -0.003152
    7        0.133226
    8        0.117025
    9       -0.019910
   10       -0.023604
   11       -0.014020
   12       -0.006721
   13       -0.001640
   14        0.011349
   15       -0.046810
   16       -0.113785
   17       -0.063446
   18        0.221552
   19        0.144288
   20        0.082613
   21       -0.132039
   22       -0.074714
   23       -0.066982
   24       -0.002414
   25        0.012594
   26        0.022292
   27        0.015517
   28        0.002145
   29        0.054728
   30        0.132606
   31        0.076303
   32       -0.102693
   33        0.342306
   34        0.047996
   35        0.058071
   36       -0.195993
   37       -0.046843
   38        0.009163
   39        0.019636
   40       -0.020751
   41        0.015254
   42       -0.016706
   43        0.049461
   44        0.119998
   45        0.067935
   46        0.100766
   47       -0.248475
   48       -0.252923
   49       -0.059306
   50        0.155060
   51        0.131181
   52        0.018956
   53       -0.022266
   54       -0.021504
   55        0.013383
   56        0.004311
Sym= A
Ene=   -0.8954
Spin= Alpha
Occup= 0.0000
    1       -0.039234
    2       -0.095266
    3       -0.052587
    4        0.000946
    5        0.210630
    6        0.171139
    7       -0.000476
    8       -0.117099
    9       -0.116021
   10        0.009678
   11        0.001104
   12        0.027530
   13        0.006176
   14       -0.000311
   15       -0.039257
   16       -0.095704
   17       -0.051135
   18       -0.008923
   19       -0.315953
   20       -0.063667
   21       -0.000030
   22        0.189125
   23        0.020406
   24       -0.024425
   25       -0.007400
   26       -0.007791
   27       -0.018812
   28       -0.007396
   29        0.052489
   30        0.127660
   31        0.071880
   32        0.308565
   33        0.191534
   34       -0.049636
   35       -0.183447
   36       -0.109980
   37        0.011601
   38        0.025287
   39       -0.025425
   40       -0.004618
   41        0.008464
   42       -0.007723
   43        0.031308
   44        0.076219
   45        0.040742
   46       -0.321012
   47       -0.064619
   48       -0.162592
   49        0.185832
   50        0.044167
   51        0.080736
   52        0.001684
   53        0.013284
   54       -0.024985
   55        0.000308
   56       -0.028363
Sym= A
Ene=   -0.6961
Spin= Alpha
Occup= 0.0000
    1       -0.033008
    2       -0.084518
    3       -0.046635
    4       -0.326703
    5        0.238296
    6       -0.169858
    7        0.181476
    8       -0.129559
    9        0.083753
   10       -0.023603
   11       -0.000080
   12        0.006235
   13        0.028167
   14       -0.025607
   15       -0.030628
   16       -0.078191
   17       -0.045814
   18        0.272819
   19       -0.006090
   20       -0.350702
   21       -0.151390
   22        0.008053
   23        0.185544
   24       -0.016377
   25       -0.030389
   26        0.008160
   27        0.026801
   28       -0.011789
   29        0.022764
   30        0.058028
   31        0.030768
   32        0.024988
   33       -0.131991
   34        0.149689
   35       -0.016309
   36        0.083763
   37       -0.104166
   38       -0.004618
   39       -0.001496
   40       -0.006376
   41       -0.021958
   42        0.013052
   43        0.022164
   44        0.056644
   45        0.029514
   46        0.016110
   47       -0.024517
   48        0.197001
   49       -0.010199
   50        0.022142
   51       -0.131262
   52        0.011547
   53        0.015070
   54        0.013581
   55       -0.008876
   56        0.009099
Sym= A
Ene=   -0.1471
Spin= Alpha
Occup= 0.0000
    1       -0.001751
    2       -0.004114
    3       -0.014503
    4        0.122961
    5        0.320742
    6        0.113064
    7       -0.147715
    8       -0.386002
    9       -0.131473
   10       -0.006411
   11       -0.004752
   12       -0.006806
   13       -0.005678
   14        0.000552
   15        0.000796
   16        0.002277
   17       -0.000537
   18       -0.143910
   19       -0.337114
   20       -0.122258
   21        0.171840
   22        0.404782
   23        0.151546
   24        0.007239
   25        0.004686
   26        0.008277
   27        0.004597
   28       -0.001556
   29        0.001474
   30        0.004206
   31        0.010977
   32       -0.352796
   33        0.123879
   34        0.065421
   35        0.433171
   36       -0.151105
   37       -0.077395
   38        0.003123
   39       -0.006233
   40        0.000602
   41        0.001206
   42        0.005722
   43       -0.000355
   44       -0.000734
   45        0.001376
   46        0.379637
   47       -0.113090
   48       -0.073992
   49       -0.466873
   50        0.138817
   51        0.093951
   52       -0.003824
   53        0.008520
   54       -0.002409
   55        0.001087
   56       -0.002340
Sym= A
Ene=   -0.1332
Spin= Alpha
Occup= 0.0000
    1       -0.001845
    2       -0.005157
    3       -0.016126
    4        0.141391
    5        0.213755
    6        0.128866
    7       -0.179140
    8       -0.264429
    9       -0.156686
   10       -0.005119
   11       -0.001543
   12       -0.007012
   13       -0.000732
   14        0.001101
   15        0.000041
   16        0.000494
   17        0.004476
   18        0.117468
   19        0.221152
   20        0.034155
   21       -0.149518
   22       -0.273209
   23       -0.039110
   24       -0.004122
   25       -0.001429
   26       -0.003467
   27       -0.005681
   28       -0.000827
   29       -0.000646
   30       -0.002747
   31        0.000224
   32       -0.103992
   33       -0.366160
   34        0.266468
   35        0.125753
   36        0.453365
   37       -0.330830
   38        0.000319
   39       -0.002572
   40        0.003175
   41        0.009613
   42       -0.005240
   43        0.002441
   44        0.007366
   45        0.011262
   46       -0.137755
   47       -0.058658
   48       -0.440730
   49        0.167251
   50        0.070036
   51        0.550191
   52        0.005836
   53        0.005701
   54        0.004253
   55       -0.005730
   56        0.005405
Sym= A
Ene=   -0.1227
Spin= Alpha
Occup= 0.0000
    1        0.007466
    2        0.015596
    3        0.033284
    4        0.264580
    5       -0.246439
    6        0.274728
    7       -0.337100
    8        0.312696
    9       -0.344914
   10       -0.001520
   11        0.002871
   12       -0.004473
   13        0.006673
   14       -0.009085
   15       -0.008189
   16       -0.017825
   17       -0.037589
   18        0.186311
   19        0.040174
   20       -0.413614
   21       -0.238633
   22       -0.049346
   23        0.524864
   24       -0.002208
   25        0.009785
   26        0.003147
   27       -0.006848
   28        0.003413
   29        0.000512
   30        0.001561
   31        0.005062
   32       -0.257410
   33        0.130376
   34        0.026539
   35        0.329102
   36       -0.164868
   37       -0.032488
   38        0.002390
   39       -0.006009
   40        0.000933
   41       -0.000128
   42        0.004598
   43        0.000227
   44        0.000467
   45       -0.000238
   46       -0.224427
   47        0.083292
   48        0.111446
   49        0.286585
   50       -0.104780
   51       -0.140285
   52        0.002060
   53       -0.006841
   54        0.001032
   55        0.000233
   56        0.001747
Sym= A
Ene=   -0.0517
Spin= Alpha
Occup= 0.0000
    1       -0.122379
    2       -0.316542
    3       -1.008438
    4        0.339005
    5       -0.044732
    6       -0.204815
    7       -0.767656
    8        0.130797
    9        0.347998
   10       -0.016029
   11        0.015853
   12       -0.003777
   13        0.005922
   14       -0.013262
   15        0.138255
   16        0.355445
   17        1.144670
   18        0.398785
   19       -0.181472
   20        0.083220
   21       -0.860845
   22        0.346496
   23       -0.103970
   24       -0.005072
   25        0.019233
   26       -0.008078
   27       -0.005666
   28       -0.008319
   29       -0.020492
   30       -0.052574
   31       -0.163570
   32        0.166844
   33       -0.010331
   34        0.016284
   35       -0.485518
   36        0.074582
   37       -0.000102
   38       -0.014265
   39        0.028457
   40       -0.010736
   41        0.005870
   42       -0.006529
   43        0.003655
   44        0.008884
   45        0.030597
   46        0.149378
   47       -0.025480
   48       -0.009737
   49       -0.456333
   50        0.097507
   51        0.042003
   52       -0.010310
   53        0.022332
   54       -0.005893
   55       -0.006353
   56       -0.022785
Sym= A
Ene=   -0.0370
Spin= Alpha
Occup= 0.0000
    1        0.083307
    2        0.209169
    3        0.730102
    4       -0.151653
    5       -0.108196
    6        0.215786
    7        0.281552
    8        0.370425
    9       -0.504763
   10        0.000191
   11        0.000940
   12        0.011374
   13        0.021212
   14       -0.023532
   15        0.075836
   16        0.190006
   17        0.663711
   18        0.120997
   19       -0.194423
   20        0.137401
   21       -0.167685
   22        0.511806
   23       -0.375792
   24        0.003580
   25       -0.008591
   26        0.010255
   27        0.030877
   28       -0.006410
   29       -0.011816
   30       -0.033009
   31       -0.092314
   32       -0.017935
   33       -0.117527
   34        0.116568
   35        0.059801
   36        0.373848
   37       -0.332178
   38        0.017244
   39       -0.002719
   40       -0.004240
   41        0.024141
   42       -0.018013
   43       -0.149581
   44       -0.377886
   45       -1.282086