[Molden Format]
[Title]
N4                                                                              
[Atoms] AU
 n     1    7 0.12141712962000E+01 0.00000000000000E+00 0.11929119035000E+01
 n     2    7 -.13902703010000E+01 0.80233672640000E+00 0.58212322750000E+00
 n     3    7 0.58082277020000E+00 0.80233672640000E+00 -.13773978299000E+01
 n     4    7 -.40472376540000E+00 -.16046734527000E+01 -.39763730120000E+00
[GTO]
    1 0
 s    9 1.00
 0.45840000000000E+05 0.92710633559608E-04
 0.68680000000000E+04 0.72253830719825E-03
 0.15630000000000E+04 0.37779583175540E-02
 0.44240000000000E+03 0.15651973483129E-01
 0.14430000000000E+03 0.53556514469119E-01
 0.52180000000000E+02 0.14792082356863E+00
 0.20340000000000E+02 0.30701630165403E+00
 0.83810000000000E+01 0.40075582170129E+00
 0.35290000000000E+01 0.21932211954942E+00
 s    9 1.00
 0.45840000000000E+05 -.57338677874064E-04
 0.68680000000000E+04 -.45584248909881E-03
 0.15630000000000E+04 -.23623535284115E-02
 0.44240000000000E+03 -.99711960822998E-02
 0.14430000000000E+03 -.34305730972053E-01
 0.52180000000000E+02 -.10145505663037E+00
 0.20340000000000E+02 -.22957546540607E+00
 0.83810000000000E+01 -.42064227475192E+00
 0.35290000000000E+01 -.33359642787131E+00
 s    1 1.00
 0.10540000000000E+01 0.10000000000000E+01
 s    1 1.00
 0.41180000000000E+00 0.10000000000000E+01
 s    1 1.00
 0.15520000000000E+00 0.10000000000000E+01
 p    3 1.00
 0.49330000000000E+02 0.31126097368555E-01
 0.11370000000000E+02 0.21355664346739E+00
 0.34350000000000E+01 0.83836255894469E+00
 p    1 1.00
 0.11820000000000E+01 0.10000000000000E+01
 p    1 1.00
 0.41730000000000E+00 0.10000000000000E+01
 p    1 1.00
 0.14280000000000E+00 0.10000000000000E+01
 d    1 1.00
 0.28370000000000E+01 0.10000000000000E+01
 d    1 1.00
 0.96800000000000E+00 0.10000000000000E+01
 d    1 1.00
 0.33500000000000E+00 0.10000000000000E+01
 f    1 1.00
 0.20270000000000E+01 0.10000000000000E+01
 f    1 1.00
 0.68500000000000E+00 0.10000000000000E+01
 g    1 1.00
 0.14270000000000E+01 0.10000000000000E+01
 
    2 0
 s    9 1.00
 0.45840000000000E+05 0.92710633559608E-04
 0.68680000000000E+04 0.72253830719825E-03
 0.15630000000000E+04 0.37779583175540E-02
 0.44240000000000E+03 0.15651973483129E-01
 0.14430000000000E+03 0.53556514469119E-01
 0.52180000000000E+02 0.14792082356863E+00
 0.20340000000000E+02 0.30701630165403E+00
 0.83810000000000E+01 0.40075582170129E+00
 0.35290000000000E+01 0.21932211954942E+00
 s    9 1.00
 0.45840000000000E+05 -.57338677874064E-04
 0.68680000000000E+04 -.45584248909881E-03
 0.15630000000000E+04 -.23623535284115E-02
 0.44240000000000E+03 -.99711960822998E-02
 0.14430000000000E+03 -.34305730972053E-01
 0.52180000000000E+02 -.10145505663037E+00
 0.20340000000000E+02 -.22957546540607E+00
 0.83810000000000E+01 -.42064227475192E+00
 0.35290000000000E+01 -.33359642787131E+00
 s    1 1.00
 0.10540000000000E+01 0.10000000000000E+01
 s    1 1.00
 0.41180000000000E+00 0.10000000000000E+01
 s    1 1.00
 0.15520000000000E+00 0.10000000000000E+01
 p    3 1.00
 0.49330000000000E+02 0.31126097368555E-01
 0.11370000000000E+02 0.21355664346739E+00
 0.34350000000000E+01 0.83836255894469E+00
 p    1 1.00
 0.11820000000000E+01 0.10000000000000E+01
 p    1 1.00
 0.41730000000000E+00 0.10000000000000E+01
 p    1 1.00
 0.14280000000000E+00 0.10000000000000E+01
 d    1 1.00
 0.28370000000000E+01 0.10000000000000E+01
 d    1 1.00
 0.96800000000000E+00 0.10000000000000E+01
 d    1 1.00
 0.33500000000000E+00 0.10000000000000E+01
 f    1 1.00
 0.20270000000000E+01 0.10000000000000E+01
 f    1 1.00
 0.68500000000000E+00 0.10000000000000E+01
 g    1 1.00
 0.14270000000000E+01 0.10000000000000E+01
 
    3 0
 s    9 1.00
 0.45840000000000E+05 0.92710633559608E-04
 0.68680000000000E+04 0.72253830719825E-03
 0.15630000000000E+04 0.37779583175540E-02
 0.44240000000000E+03 0.15651973483129E-01
 0.14430000000000E+03 0.53556514469119E-01
 0.52180000000000E+02 0.14792082356863E+00
 0.20340000000000E+02 0.30701630165403E+00
 0.83810000000000E+01 0.40075582170129E+00
 0.35290000000000E+01 0.21932211954942E+00
 s    9 1.00
 0.45840000000000E+05 -.57338677874064E-04
 0.68680000000000E+04 -.45584248909881E-03
 0.15630000000000E+04 -.23623535284115E-02
 0.44240000000000E+03 -.99711960822998E-02
 0.14430000000000E+03 -.34305730972053E-01
 0.52180000000000E+02 -.10145505663037E+00
 0.20340000000000E+02 -.22957546540607E+00
 0.83810000000000E+01 -.42064227475192E+00
 0.35290000000000E+01 -.33359642787131E+00
 s    1 1.00
 0.10540000000000E+01 0.10000000000000E+01
 s    1 1.00
 0.41180000000000E+00 0.10000000000000E+01
 s    1 1.00
 0.15520000000000E+00 0.10000000000000E+01
 p    3 1.00
 0.49330000000000E+02 0.31126097368555E-01
 0.11370000000000E+02 0.21355664346739E+00
 0.34350000000000E+01 0.83836255894469E+00
 p    1 1.00
 0.11820000000000E+01 0.10000000000000E+01
 p    1 1.00
 0.41730000000000E+00 0.10000000000000E+01
 p    1 1.00
 0.14280000000000E+00 0.10000000000000E+01
 d    1 1.00
 0.28370000000000E+01 0.10000000000000E+01
 d    1 1.00
 0.96800000000000E+00 0.10000000000000E+01
 d    1 1.00
 0.33500000000000E+00 0.10000000000000E+01
 f    1 1.00
 0.20270000000000E+01 0.10000000000000E+01
 f    1 1.00
 0.68500000000000E+00 0.10000000000000E+01
 g    1 1.00
 0.14270000000000E+01 0.10000000000000E+01
 
    4 0
 s    9 1.00
 0.45840000000000E+05 0.92710633559608E-04
 0.68680000000000E+04 0.72253830719825E-03
 0.15630000000000E+04 0.37779583175540E-02
 0.44240000000000E+03 0.15651973483129E-01
 0.14430000000000E+03 0.53556514469119E-01
 0.52180000000000E+02 0.14792082356863E+00
 0.20340000000000E+02 0.30701630165403E+00
 0.83810000000000E+01 0.40075582170129E+00
 0.35290000000000E+01 0.21932211954942E+00
 s    9 1.00
 0.45840000000000E+05 -.57338677874064E-04
 0.68680000000000E+04 -.45584248909881E-03
 0.15630000000000E+04 -.23623535284115E-02
 0.44240000000000E+03 -.99711960822998E-02
 0.14430000000000E+03 -.34305730972053E-01
 0.52180000000000E+02 -.10145505663037E+00
 0.20340000000000E+02 -.22957546540607E+00
 0.83810000000000E+01 -.42064227475192E+00
 0.35290000000000E+01 -.33359642787131E+00
 s    1 1.00
 0.10540000000000E+01 0.10000000000000E+01
 s    1 1.00
 0.41180000000000E+00 0.10000000000000E+01
 s    1 1.00
 0.15520000000000E+00 0.10000000000000E+01
 p    3 1.00
 0.49330000000000E+02 0.31126097368555E-01
 0.11370000000000E+02 0.21355664346739E+00
 0.34350000000000E+01 0.83836255894469E+00
 p    1 1.00
 0.11820000000000E+01 0.10000000000000E+01
 p    1 1.00
 0.41730000000000E+00 0.10000000000000E+01
 p    1 1.00
 0.14280000000000E+00 0.10000000000000E+01
 d    1 1.00
 0.28370000000000E+01 0.10000000000000E+01
 d    1 1.00
 0.96800000000000E+00 0.10000000000000E+01
 d    1 1.00
 0.33500000000000E+00 0.10000000000000E+01
 f    1 1.00
 0.20270000000000E+01 0.10000000000000E+01
 f    1 1.00
 0.68500000000000E+00 0.10000000000000E+01
 g    1 1.00
 0.14270000000000E+01 0.10000000000000E+01
 
[MO]
 Sym=     1a   
 Ene= -.15748658623900E+02
 Spin= Alpha
 Occup= 2.000000
     1 0.50025998586614E+00
     2 0.42153144317101E-03
     3 0.85190328498643E-02
     4 -.18671758801889E-02
     5 0.72895994631338E-03
     6 -.11086970795502E-02
     7 0.15669597710797E-06
     8 -.11038672082979E-02
     9 0.28401213177639E-03
    10 0.13671198851691E-06
    11 0.27836085567673E-03
    12 -.19637775041234E-03
    13 -.38656287542728E-07
    14 -.19940505290850E-03
    15 -.23532476751053E-03
    16 -.76614654056529E-06
    17 -.22037348538773E-03
    18 0.11365857676506E-04
    19 -.22407346868253E-04
    20 0.11041489191747E-04
    21 0.12772809391826E-06
    22 0.38805611163065E-04
    23 -.16908810100525E-06
    24 -.15874965243728E-04
    25 0.26724260602293E-04
    26 -.10849295358566E-04
    27 0.60186734549451E-06
    28 -.46336271028557E-04
    29 -.58692750472037E-06
    30 0.38719322359255E-04
    31 -.80044202091705E-04
    32 0.41324879732450E-04
    33 0.12895845338246E-05
    34 0.13844920631384E-03
    35 -.14110689814780E-05
    36 -.14174779101970E-05
    37 -.67427817062258E-06
    38 -.11859549847091E-05
    39 -.34767149237371E-05
    40 0.49900919086255E-06
    41 0.51367493885256E-05
    42 0.53784611020200E-05
    43 0.40562990429123E-06
    44 -.35456238100870E-05
    45 -.54496768202157E-06
    46 0.12425507285717E-05
    47 -.14015214352118E-04
    48 -.69389289988374E-09
    49 0.15723886206143E-05
    50 0.85425968677289E-05
    51 -.19414049684473E-05
    52 -.32394453573612E-05
    53 0.10260786338611E-04
    54 0.19423359234632E-05
    55 -.10822883898724E-04
    56 0.62694810348907E-06
    57 -.60396138154102E-06
    58 0.68704587628273E-06
    59 -.18476207859926E-05
    60 -.53894240145809E-06
    61 0.12644881952585E-05
    62 0.13737492782943E-05
    63 -.22023547679907E-06
    64 -.21061850786922E-05
    65 0.58324983944162E-06
    66 -.16845594993155E-05
    67 0.47768088190554E-06
    68 0.98266574330647E-06
    69 0.10185440056782E-05
    70 0.78235446766615E-06
    71 0.47524035210628E+00
    72 0.40403645479980E-03
    73 0.80926450125326E-02
    74 -.17787771950596E-02
    75 0.56250338043652E-03
    76 0.12068909813196E-02
    77 -.69969725856540E-03
    78 -.51147731961094E-03
    79 -.29840453806413E-03
    80 0.17472162817166E-03
    81 0.12574317350411E-03
    82 0.18865999465394E-03
    83 -.11260555940293E-03
    84 -.83137907455371E-04
    85 0.21511749486234E-03
    86 -.13136862364404E-03
    87 -.89330072409065E-04
    88 0.22075013186995E-04
    89 -.75622249204493E-05
    90 -.14512788266545E-04
    91 -.28947592414939E-04
    92 -.21477976569068E-04
    93 0.12232722075501E-04
    94 -.29296883216030E-04
    95 0.96995906057594E-05
    96 0.19597292610270E-04
    97 0.36365347019279E-04
    98 0.26240468899506E-04
    99 -.15385651285650E-04
   100 0.70278471514350E-04
   101 -.23740669649736E-04
   102 -.46537801864615E-04
   103 -.96193833308209E-04
   104 -.71794468622160E-04
   105 0.40870957588235E-04
   106 -.87553877096454E-06
   107 -.33677375983921E-05
   108 -.27452178134273E-05
   109 -.66019813388870E-06
   110 0.49351023426364E-05
   111 0.39451051082500E-05
   112 0.18348566591767E-05
   113 -.41680822240437E-06
   114 -.26200892192988E-06
   115 -.36311150896751E-05
   116 -.13618242426218E-05
   117 -.44674335894423E-05
   118 0.55111061305707E-05
   119 -.77775946756456E-05
   120 -.61587689150790E-05
   121 0.22796055432809E-05
   122 0.96046736235913E-05
   123 0.12152460029654E-04
   124 -.96735303067841E-05
   125 0.34014397915176E-06
   126 -.50398488468066E-07
   127 0.12030084559575E-05
   128 -.57665124468079E-06
   129 -.39162096329416E-07
   130 0.15799587524587E-05
   131 -.39178524520752E-06
   132 0.19125141674553E-05
   133 -.13651913141262E-05
   134 -.93716081958094E-06
   135 -.15188275287936E-05
   136 0.16073585282241E-05
   137 -.59440134307434E-06
   138 -.13085738327574E-05
   139 -.28814075487899E-06
   140 0.57817653023965E-06
   141 0.51637375505110E+00
   142 0.43364212660434E-03
   143 0.87980343512963E-02
   144 -.19303817940200E-02
   145 0.84088537491344E-03
   146 -.54773407252594E-03
   147 -.76261685615111E-03
   148 0.13160004588402E-02
   149 0.14300341059354E-03
   150 0.19576331601367E-03
   151 -.33924968379839E-03
   152 -.10320678113191E-03
   153 -.14368657603507E-03
   154 0.25161882974462E-03
   155 -.12746994272498E-03
   156 -.16614102142634E-03
   157 0.29284958550114E-03
   158 -.14561516270533E-04
   159 -.74153246180111E-05
   160 0.21976840888544E-04
   161 0.12613087008558E-04
   162 -.21414342659603E-04
   163 -.30375529870593E-04
   164 0.15490296714272E-04
   165 0.81612298951731E-05
   166 -.23651526609445E-04
   167 -.14546269964367E-04
   168 0.25528176127383E-04
   169 0.34994704823745E-04
   170 -.55695994346190E-04
   171 -.28796063685577E-04
   172 0.84492058031768E-04
   173 0.47139678153195E-04
   174 -.79869897515127E-04
   175 -.11317838710466E-03
   176 -.28554005176974E-05
   177 -.36939473632050E-05
   178 -.10936260520888E-05
   179 -.32089473017654E-06
   180 -.38162810599366E-06
   181 0.24445333805154E-05
   182 0.41518165265123E-05
   183 0.53375785516531E-05
   184 -.97728006385423E-06
   185 -.38787545433717E-05
   186 0.65710650513744E-05
   187 -.27409832940271E-05
   188 0.10258303361411E-06
   189 -.10236951145985E-04
   190 0.12629720119050E-04
   191 0.80216632619759E-05
   192 0.14209422623173E-05
   193 -.89523051366684E-05
   194 -.81592928438755E-05
   195 0.15320100084748E-05
   196 -.53961575827893E-06
   197 0.12819306729087E-05
   198 0.63047699508170E-07
   199 -.99065451078635E-06
   200 -.14179368951727E-05
   201 0.20153575665907E-05
   202 -.12875309125028E-06
   203 0.16472090606940E-05
   204 -.34660264725393E-06
   205 -.59660723230984E-06
   206 0.15445071364733E-05
   207 -.16552579946620E-05
   208 0.63775664687402E-06
   209 -.30760088847249E-06
   210 -.13747834137182E-05
   211 0.49330636282127E+00
   212 0.41715480762380E-03
   213 0.84031511698015E-02
   214 -.18466423524498E-02
   215 0.68576772313178E-03
   216 0.36614941093222E-03
   217 0.14552821622957E-02
   218 0.36178663681412E-03
   219 -.89968797268669E-04
   220 -.36747581694042E-03
   221 -.93251620429193E-04
   222 0.60782753819838E-04
   223 0.25168761589641E-03
   224 0.64232330140435E-04
   225 0.64158752149762E-04
   226 0.29150850746556E-03
   227 0.79508995010483E-04
   228 -.17997854976369E-04
   229 0.37128198565533E-04
   230 -.19130343589163E-04
   231 0.17749631895690E-04
   232 0.43224334524407E-05
   233 0.16652784099130E-04
   234 0.20325001178605E-04
   235 -.44952641576857E-04
   236 0.24627640398252E-04
   237 -.21338200177659E-04
   238 -.51696699986894E-05
   239 -.20377618903997E-04
   240 -.65333896695605E-04
   241 0.13034704158900E-03
   242 -.65013144893391E-04
   243 0.60761977172084E-04
   244 0.15055559867859E-04
   245 0.59443991883146E-04
   246 0.20170208018456E-05
   247 -.50037706391137E-05
   248 0.17852447520304E-05
   249 -.41146342883376E-05
   250 0.33419154930110E-05
   251 0.13598655211526E-05
   252 0.14085169133629E-05
   253 0.33713472827144E-05
   254 -.37550226943615E-05
   255 -.18255329731727E-05
   256 -.10996126027434E-04
   257 0.17448193736334E-05
   258 -.10732834806332E-04
   259 0.33441549941304E-05
   260 -.15350112642432E-05
   261 0.11436245902272E-04
   262 0.11408696177767E-04
   263 -.80590957249858E-06
   264 0.29633630286677E-05
   265 -.61189302653848E-05
   266 -.10625358358191E-05
   267 -.96678282818278E-06
   268 -.11330257926375E-05
   269 -.29583886925067E-06
   270 0.78143224984521E-06
   271 -.76453260351884E-06
   272 -.67912363997777E-06
   273 0.69360579390242E-06
   274 -.32843482271337E-06
   275 0.78722305069294E-06
   276 0.10792487887424E-05
   277 0.91104712789519E-06
   278 0.13517815283295E-05
   279 -.19789712011308E-05
   280 0.14226376167085E-05
 Sym=     2a   
 Ene= -.15747736445176E+02
 Spin= Alpha
 Occup= 2.000000
     1 0.29025825662429E+00
     2 0.19116298026903E-03
     3 0.48377683899649E-02
     4 -.83467646886878E-03
     5 0.17843138080276E-02
     6 -.64610798050919E-03
     7 -.34385520444181E-04
     8 -.58819508224522E-03
     9 0.18772508407494E-03
    10 -.60199791714784E-04
    11 0.27684282104151E-03
    12 -.32097463661235E-03
    13 0.84497610786095E-04
    14 -.44421445492430E-03
    15 -.21683926356150E-03
    16 0.23424739869843E-03
    17 -.57396897949847E-03
    18 0.12361532731372E-04
    19 -.32243579038501E-05
    20 -.91371748275217E-05
    21 0.67134517404915E-05
    22 0.91647796977727E-05
    23 0.93773508920165E-05
    24 -.12878139352920E-04
    25 -.17288045388257E-05
    26 0.14606943891745E-04
    27 -.17499836154983E-04
    28 0.23418674683258E-04
    29 -.17418792395847E-05
    30 0.24168354037761E-04
    31 -.66535063785885E-04
    32 0.42366709748124E-04
    33 -.15266692438132E-04
    34 0.13307546409657E-03
    35 -.12142187464549E-05
    36 0.11332559377273E-05
    37 -.40576030384404E-05
    38 -.51617582463721E-05
    39 -.50688084013776E-06
    40 0.35989851984894E-06
    41 0.55783242697462E-05
    42 -.10135415474604E-05
    43 0.50839472119485E-05
    44 0.13469011236387E-05
    45 0.23253188680909E-05
    46 0.88056014439744E-05
    47 -.31814939559537E-05
    48 0.64721055709122E-05
    49 0.22626861170301E-05
    50 0.89791027940369E-05
    51 -.11779169816396E-04
    52 -.14076640163928E-04
    53 -.47106807407265E-05
    54 0.30959290079275E-05
    55 -.24776627800302E-06
    56 -.20182567365236E-06
    57 0.34960535105286E-06
    58 0.34345225723062E-06
    59 -.11382139992571E-05
    60 -.15574185790510E-05
    61 0.17413787765879E-05
    62 0.89277869528528E-06
    63 0.12778447549315E-05
    64 -.73069397091952E-06
    65 0.17186119643722E-06
    66 0.18266984491519E-06
    67 -.78598499410946E-06
    68 -.21745947707769E-06
    69 0.37508764527642E-06
    70 -.80923046624710E-06
    71 0.14836891437913E+00
    72 0.98388074087143E-04
    73 0.24734578374877E-02
    74 -.43236726794718E-03
    75 0.88456991867798E-03
    76 0.35546564057190E-03
    77 -.24813323770051E-03
    78 -.11842607685807E-03
    79 -.14770239484582E-03
    80 0.96666844408064E-05
    81 0.12208955150781E-03
    82 0.23586611406757E-03
    83 -.28023199537465E-04
    84 -.18634956702353E-03
    85 0.27529257500822E-03
    86 0.13159691581012E-03
    87 -.34001850056680E-03
    88 0.12916520666300E-06
    89 0.95147373031788E-05
    90 -.96439025098418E-05
    91 -.11794372635553E-04
    92 0.91538201898979E-05
    93 0.26109644872225E-05
    94 0.12683576732309E-04
    95 -.14277154523687E-04
    96 0.15935777913770E-05
    97 0.98852535802349E-05
    98 -.12005378404153E-04
    99 0.16897031923428E-04
   100 0.43633539321082E-04
   101 -.24684386722360E-04
   102 -.18949152598721E-04
   103 -.33922492486680E-04
   104 -.46243430053295E-04
   105 0.32114552225663E-04
   106 -.85595267158415E-06
   107 -.57951794722323E-06
   108 0.96056707366615E-07
   109 -.42722021418022E-05
   110 0.14547229886287E-05
   111 -.39680378481377E-05
   112 0.54205831573130E-05
   113 -.67721807412534E-06
   114 0.38391642517178E-05
   115 -.12835382922555E-05
   116 0.70393824872915E-05
   117 0.31222955245878E-05
   118 0.64079424788993E-05
   119 -.58477455977722E-05
   120 -.11222343214617E-05
   121 -.15946368326883E-05
   122 -.35965770589510E-05
   123 -.30667647018312E-05
   124 -.70025201545481E-05
   125 0.84486177842190E-05
   126 0.75241374478592E-07
   127 0.12961369852445E-05
   128 -.54757694289415E-06
   129 -.64814324805317E-07
   130 -.85213506810340E-06
   131 0.10014083826125E-05
   132 -.72394759011777E-07
   133 0.47390164203245E-06
   134 0.15387464280408E-07
   135 -.16854377578282E-05
   136 0.15532672447119E-05
   137 -.59138256338427E-06
   138 0.76483311739624E-07
   139 0.50745339123437E-06
   140 -.12565727883475E-05
   141 -.83186084251316E+00
   142 -.53962520501793E-03
   143 -.13863093876092E-01
   144 0.23944888278635E-02
   145 -.52995943215398E-02
   146 0.85514315146140E-03
   147 0.11722984654677E-02
   148 -.20432539930421E-02
   149 -.32170757227213E-03
   150 -.46925167602268E-03
   151 0.77222695903478E-03
   152 0.54037744705331E-03
   153 0.78001235201773E-03
   154 -.12903054610319E-02
   155 0.53869977075546E-03
   156 0.84547321172335E-03
   157 -.13186898124025E-02
   158 0.70143476743796E-05
   159 0.69674369659465E-05
   160 -.13981784640326E-04
   161 -.60974590562073E-05
   162 0.13366539072582E-04
   163 0.15396092889870E-04
   164 0.22825003253807E-04
   165 0.92036141641160E-05
   166 -.32028617417923E-04
   167 -.16158657898888E-04
   168 0.30042968680145E-04
   169 0.47676293997762E-04
   170 0.14010948379531E-03
   171 0.69303401595163E-04
   172 -.20941288539047E-03
   173 -.12021062852970E-03
   174 0.20855377187070E-03
   175 0.29185066087465E-03
   176 0.12451958560011E-05
   177 0.46002469449565E-05
   178 0.12965461121390E-05
   179 0.38189350829326E-05
   180 -.29519568716336E-05
   181 -.36310596151455E-05
   182 -.54895406305243E-05
   183 -.32199220576915E-05
   184 0.18915604695220E-05
   185 0.32916888322608E-05
   186 -.19233163075567E-04
   187 -.18480567811059E-04
   188 -.35619694250738E-05
   189 0.37233197056631E-05
   190 -.11065060289606E-04
   191 0.53949002834966E-05
   192 0.22080676329921E-04
   193 0.35859343822599E-04
   194 -.61601682255202E-06
   195 -.21606309472354E-04
   196 0.70297549944654E-06
   197 -.80754105898997E-06
   198 0.51297086639099E-06
   199 0.18480417446791E-05
   200 0.72398185018951E-06
   201 -.20158982278976E-05
   202 -.45487062441738E-06
   203 -.14374069498032E-05
   204 0.12907562548873E-05
   205 0.54238845880600E-06
   206 -.17772493729496E-05
   207 0.87615442227305E-06
   208 -.11214582546876E-05
   209 0.95716021175451E-06
   210 0.22520310416439E-06
   211 0.43348244523857E+00
   212 0.28357939923204E-03
   213 0.72251523115494E-02
   214 -.12595641217871E-02
   215 0.26803100941914E-02
   216 0.30099291002105E-03
   217 0.12218574385388E-02
   218 0.35125753800034E-03
   219 -.13066505078282E-03
   220 -.48320800098291E-03
   221 -.35605631635866E-04
   222 0.21156277738467E-03
   223 0.78970403260413E-03
   224 0.74972928411213E-04
   225 0.25248201400305E-03
   226 0.85595697306902E-03
   227 -.10902307772761E-03
   228 -.49778691574420E-05
   229 0.67533570479100E-05
   230 -.17754878904681E-05
   231 0.15042182572356E-05
   232 0.58118326740717E-05
   233 0.18859622218420E-04
   234 -.41112867534799E-05
   235 0.32776721672900E-04
   236 -.28665434919420E-04
   237 0.11127558753454E-04
   238 0.69891038468192E-05
   239 -.30290252474091E-05
   240 -.85102191566236E-04
   241 0.19266336328167E-03
   242 -.10756117171544E-03
   243 0.86842243886618E-04
   244 0.23120447764315E-04
   245 0.70369864867583E-04
   246 -.18269106942942E-05
   247 -.48064909109346E-06
   248 0.32026112064433E-05
   249 0.15273413603272E-05
   250 0.55556071521341E-06
   251 0.22054034816395E-05
   252 0.92371654043075E-06
   253 0.89297709391668E-07
   254 -.65021572995053E-05
   255 -.47508854877117E-05
   256 -.65665070605130E-05
   257 0.17711010410285E-04
   258 -.11736855451450E-04
   259 0.87673569846736E-05
   260 -.56935259587985E-05
   261 0.42901394377959E-05
   262 0.42536712550011E-07
   263 -.18068287977763E-04
   264 0.11456504541123E-04
   265 0.66496003576349E-05
   266 -.88216396862944E-06
   267 0.68216082143517E-06
   268 -.28020222311063E-07
   269 -.79598871642443E-06
   270 0.85390476074600E-07
   271 0.94211509116552E-06
   272 -.97541283219231E-06
   273 0.10269503787066E-05
   274 0.91354462687899E-07
   275 0.15105433404548E-06
   276 0.13985726523630E-05
   277 -.13493517657677E-05
   278 0.11860887661737E-05
   279 -.14923618592646E-05
   280 -.19604910433602E-06
 Sym=     3a   
 Ene= -.15747722124848E+02
 Spin= Alpha
 Occup= 2.000000
     1 -.80198886099021E+00
     2 -.51788234043738E-03
     3 -.13354149499330E-01
     4 0.23051920491105E-02
     5 -.50728245404619E-02
     6 0.17070034319741E-02
     7 -.16565817747215E-04
     8 0.17054884689432E-02
     9 -.67062907495516E-03
    10 -.29660797238777E-04
    11 -.63781719477637E-03
    12 0.11153727341421E-02
    13 0.42617553636415E-04
    14 0.10626711310682E-02
    15 0.11703276622990E-02
    16 0.11398371070660E-03
    17 0.10745496541681E-02
    18 -.39781164734110E-05
    19 0.13072360679134E-04
    20 -.90942442057229E-05
    21 0.34731878901931E-05
    22 -.20787678687705E-04
    23 0.44541967881519E-05
    24 -.18150648388957E-04
    25 0.35107322231538E-04
    26 -.16956673842580E-04
    27 -.65017101805030E-05
    28 -.51139413534235E-04
    29 -.30339851747261E-05
    30 -.11492685170991E-03
    31 0.21250802863848E-03
    32 -.97581176928569E-04
    33 -.52716286666138E-05
    34 -.36028896207762E-03
    35 -.37052798970114E-05
    36 0.73726553298808E-06
    37 0.27396820734194E-05
    38 -.72976417143074E-07
    39 0.36082063740619E-05
    40 -.20273186090642E-05
    41 -.37408572143622E-05
    42 -.45973518835993E-05
    43 -.16483506026778E-05
    44 0.38387653520540E-05
    45 0.47195518364553E-05
    46 -.45299079874203E-05
    47 0.48003173534537E-05
    48 -.59620109219737E-05
    49 -.22694124853676E-04
    50 -.16772460155367E-05
    51 0.30201019336679E-04
    52 0.28771634168691E-04
    53 -.47630555339998E-05
    54 -.22202142314202E-04
    55 0.49701712298282E-05
    56 -.32280112680553E-07
    57 0.21148392303862E-06
    58 0.86414305611619E-07
    59 0.21698721039777E-05
    60 -.34820925037941E-06
    61 -.10683541290251E-05
    62 -.12661705999084E-05
    63 0.25857337959647E-06
    64 0.23723664018529E-05
    65 -.81497956005830E-07
    66 0.13820185178136E-06
    67 -.28999896065168E-06
    68 -.14841174057437E-05
    69 0.12025914017582E-06
    70 -.14778414422593E-05
    71 0.25613050154258E+00
    72 0.16561037816934E-03
    73 0.42649424474822E-02
    74 -.74764037068688E-03
    75 0.15817597575829E-02
    76 0.59866942977589E-03
    77 -.38702764896772E-03
    78 -.29848708454275E-03
    79 -.29249065025870E-03
    80 0.95384801163357E-04
    81 0.36072648416546E-04
    82 0.46953200736078E-03
    83 -.16375748773404E-03
    84 -.68636509398724E-04
    85 0.60245892639965E-03
    86 -.68858292578240E-04
    87 0.68133124698573E-04
    88 -.96446936586964E-05
    89 0.73237372845726E-05
    90 0.23209563741238E-05
    91 -.62394431637700E-05
    92 -.11681241349349E-04
    93 0.10130983975699E-04
    94 0.24707794626763E-04
    95 -.79044682927867E-06
    96 -.23917347797485E-04
    97 -.36994618355223E-05
    98 -.76814312650000E-05
    99 -.72511772194440E-05
   100 0.84791773787667E-04
   101 -.24557540978753E-04
   102 -.60234232808913E-04
   103 -.81761199677013E-04
   104 -.58117134549436E-04
   105 0.24814833152984E-04
   106 0.41767009307378E-05
   107 0.11537814340050E-05
   108 -.32973075097150E-05
   109 -.45385363988753E-05
   110 -.23179337837547E-05
   111 0.35051866500557E-05
   112 -.10650959228144E-05
   113 0.76997355318730E-06
   114 0.91861559061031E-06
   115 -.37831278267622E-05
   116 0.52450777983904E-05
   117 -.15859127177953E-05
   118 0.10917937590022E-04
   119 0.17528990337052E-06
   120 -.64922943640055E-05
   121 -.12692420499508E-04
   122 -.72123002060561E-05
   123 0.86200195500286E-05
   124 -.19555298757257E-05
   125 0.44058694357335E-05
   126 0.11451078088321E-05
   127 0.67851522235948E-06
   128 0.73862126729176E-06
   129 -.17591245619431E-05
   130 -.22730354895858E-06
   131 0.10753000190314E-05
   132 0.12152281699582E-05
   133 -.50770222121338E-06
   134 -.78571392881819E-06
   135 -.95296797048525E-06
   136 -.10585514590265E-05
   137 -.23892552850991E-06
   138 -.57625382429604E-06
   139 0.98611371957545E-06
   140 0.91744689757989E-06
   141 0.39520267278452E-01
   142 0.27181155300253E-04
   143 0.65937843667922E-03
   144 -.10880341006680E-03
   145 0.23135722555597E-03
   146 -.82877615983639E-04
   147 -.73376328513138E-04
   148 0.68299633411868E-04
   149 -.59366213103108E-04
   150 -.11339917677975E-04
   151 -.83236847714585E-04
   152 0.79995891560600E-04
   153 0.11337217896365E-04
   154 0.12634506772251E-03
   155 0.26513955506346E-03
   156 0.85756972081362E-04
   157 0.24803741959496E-03
   158 0.58522372267556E-05
   159 0.65009981482529E-05
   160 -.12353235375009E-04
   161 0.81848025558149E-05
   162 -.10471181587248E-04
   163 -.49455343551038E-06
   164 -.21190452351621E-04
   165 0.40951618610581E-05
   166 0.17095290490563E-04
   167 -.14699825828551E-04
   168 0.11244457254967E-05
   169 0.34662985043958E-05
   170 -.22557443288487E-04
   171 0.37336814455660E-06
   172 0.22184075143931E-04
   173 -.79924273850370E-05
   174 -.79946879948649E-05
   175 -.82845986073959E-05
   176 -.32892298198463E-05
   177 0.26419618498734E-05
   178 0.50568081876557E-05
   179 0.88324254860871E-06
   180 0.38735962651227E-06
   181 -.33835897944373E-05
   182 0.35297223338688E-05
   183 -.39319234006790E-05
   184 -.34008303196281E-05
   185 -.29821258321332E-05
   186 0.57087361476559E-05
   187 -.70508458983042E-05
   188 0.17966608241602E-05
   189 0.65401685204460E-06
   190 0.68205751915129E-05
   191 -.46072020753053E-05
   192 -.83130901071059E-05
   193 0.26391272449774E-05
   194 0.21967286341055E-05
   195 -.19383800783447E-05
   196 0.91977180687457E-06
   197 0.17107787115169E-06
   198 0.10527263499155E-05
   199 -.41399066918403E-06
   200 -.34490741003822E-06
   201 0.75721839807407E-06
   202 0.53429538336781E-06
   203 -.49497408938661E-06
   204 -.11926055394006E-05
   205 -.33484102815947E-07
   206 -.15822055693489E-05
   207 -.26703472967033E-06
   208 0.88321575550074E-06
   209 0.11268192754550E-05
   210 -.46048832013660E-06
   211 0.52517676845958E+00
   212 0.34106347865923E-03
   213 0.87481459608028E-02
   214 -.15154070439199E-02
   215 0.32848687302044E-02
   216 0.34034972636297E-03
   217 0.15042844287069E-02
   218 0.34993719436227E-03
   219 -.20291694022893E-03
   220 -.54326121545749E-03
   221 -.18141086622191E-03
   222 0.32328454576355E-03
   223 0.90428045896066E-03
   224 0.29196400512781E-03
   225 0.47667089506941E-03
   226 0.87477651826246E-03
   227 0.39060456459631E-03
   228 -.10820560734308E-04
   229 0.21225982545486E-04
   230 -.10405421811177E-04
   231 -.26914223224891E-05
   232 -.51118510831958E-05
   233 0.93552569086757E-06
   234 -.91918105810805E-05
   235 0.22187835991946E-04
   236 -.12996025410866E-04
   237 0.28506298968880E-04
   238 -.23671328436670E-05
   239 0.25771100871354E-04
   240 -.10481848072149E-03
   241 0.21683596251723E-03
   242 -.11201748179575E-03
   243 0.11803963147658E-03
   244 0.23118613278729E-04
   245 0.11415999917154E-03
   246 -.25491041082542E-05
   247 -.59468218715970E-05
   248 -.15480924040426E-05
   249 0.35997608574718E-07
   250 0.41244676402318E-05
   251 0.37953377586166E-05
   252 0.33839844320935E-05
   253 0.38540311327523E-05
   254 -.17183538480824E-05
   255 0.23792124796596E-05
   256 -.11529543125439E-04