[Molden Format]
[Atoms] (Angs)
  N      1    7     -0.64251165      0.00000000     -0.63126166
  N      2    7      0.73569921      0.42457822     -0.30804628
  N      3    7     -0.30735811      0.42457822      0.72888739
  N      4    7      0.21417055     -0.84915644      0.21042055
[GTO]
1    0
S    6    1.000000
   1.97308006E+04    2.18879850E-04 
   2.95789587E+03    1.69607088E-03 
   6.73221336E+02    8.79546035E-03 
   1.90682495E+02    3.53593826E-02 
   6.22954419E+01    1.10957892E-01 
   2.26541612E+01    2.49829726E-01 
S    2    1.000000
   8.97914774E+00    4.06238961E-01 
   3.68630024E+00    2.43382172E-01 
S    1    1.000000
   8.46600768E-01    1.00000000E+00 
S    1    1.000000
   3.36471338E-01    1.00000000E+00 
S    1    1.000000
   1.36476537E-01    1.00000000E+00 
P    4    1.000000
   4.92003805E+01    5.55524168E-03 
   1.13467905E+01    3.80523797E-02 
   3.42739724E+00    1.49536710E-01 
   1.17855251E+00    3.49493052E-01 
P    1    1.000000
   4.16422050E-01    1.00000000E+00 
P    1    1.000000
   1.42608260E-01    1.00000000E+00 
D    1    1.000000
   1.65400000E+00    1.00000000E+00 
D    1    1.000000
   4.69000000E-01    1.00000000E+00 
F    1    1.000000
   1.09300000E+00    1.00000000E+00 

2    0
S    6    1.000000
   1.97308006E+04    2.18879850E-04 
   2.95789587E+03    1.69607088E-03 
   6.73221336E+02    8.79546035E-03 
   1.90682495E+02    3.53593826E-02 
   6.22954419E+01    1.10957892E-01 
   2.26541612E+01    2.49829726E-01 
S    2    1.000000
   8.97914774E+00    4.06238961E-01 
   3.68630024E+00    2.43382172E-01 
S    1    1.000000
   8.46600768E-01    1.00000000E+00 
S    1    1.000000
   3.36471338E-01    1.00000000E+00 
S    1    1.000000
   1.36476537E-01    1.00000000E+00 
P    4    1.000000
   4.92003805E+01    5.55524168E-03 
   1.13467905E+01    3.80523797E-02 
   3.42739724E+00    1.49536710E-01 
   1.17855251E+00    3.49493052E-01 
P    1    1.000000
   4.16422050E-01    1.00000000E+00 
P    1    1.000000
   1.42608260E-01    1.00000000E+00 
D    1    1.000000
   1.65400000E+00    1.00000000E+00 
D    1    1.000000
   4.69000000E-01    1.00000000E+00 
F    1    1.000000
   1.09300000E+00    1.00000000E+00 

3    0
S    6    1.000000
   1.97308006E+04    2.18879850E-04 
   2.95789587E+03    1.69607088E-03 
   6.73221336E+02    8.79546035E-03 
   1.90682495E+02    3.53593826E-02 
   6.22954419E+01    1.10957892E-01 
   2.26541612E+01    2.49829726E-01 
S    2    1.000000
   8.97914774E+00    4.06238961E-01 
   3.68630024E+00    2.43382172E-01 
S    1    1.000000
   8.46600768E-01    1.00000000E+00 
S    1    1.000000
   3.36471338E-01    1.00000000E+00 
S    1    1.000000
   1.36476537E-01    1.00000000E+00 
P    4    1.000000
   4.92003805E+01    5.55524168E-03 
   1.13467905E+01    3.80523797E-02 
   3.42739724E+00    1.49536710E-01 
   1.17855251E+00    3.49493052E-01 
P    1    1.000000
   4.16422050E-01    1.00000000E+00 
P    1    1.000000
   1.42608260E-01    1.00000000E+00 
D    1    1.000000
   1.65400000E+00    1.00000000E+00 
D    1    1.000000
   4.69000000E-01    1.00000000E+00 
F    1    1.000000
   1.09300000E+00    1.00000000E+00 

4    0
S    6    1.000000
   1.97308006E+04    2.18879850E-04 
   2.95789587E+03    1.69607088E-03 
   6.73221336E+02    8.79546035E-03 
   1.90682495E+02    3.53593826E-02 
   6.22954419E+01    1.10957892E-01 
   2.26541612E+01    2.49829726E-01 
S    2    1.000000
   8.97914774E+00    4.06238961E-01 
   3.68630024E+00    2.43382172E-01 
S    1    1.000000
   8.46600768E-01    1.00000000E+00 
S    1    1.000000
   3.36471338E-01    1.00000000E+00 
S    1    1.000000
   1.36476537E-01    1.00000000E+00 
P    4    1.000000
   4.92003805E+01    5.55524168E-03 
   1.13467905E+01    3.80523797E-02 
   3.42739724E+00    1.49536710E-01 
   1.17855251E+00    3.49493052E-01 
P    1    1.000000
   4.16422050E-01    1.00000000E+00 
P    1    1.000000
   1.42608260E-01    1.00000000E+00 
D    1    1.000000
   1.65400000E+00    1.00000000E+00 
D    1    1.000000
   4.69000000E-01    1.00000000E+00 
F    1    1.000000
   1.09300000E+00    1.00000000E+00 

[MO]
Sym=X
Ene= -15.750868
Spin=Alpha
Occup=1
     1    2.262528741348e-01
     2    3.174286627354e-01
     3    9.878877111049e-03
     4   -2.899081582337e-03
     5    6.051355128542e-04
     6    1.408873134237e-03
     7    3.274141344425e-07
     8    1.408078144604e-03
     9   -5.746069159238e-04
    10    5.549520164005e-06
    11   -4.935321580817e-04
    12    1.989315803167e-04
    13   -3.013026954341e-07
    14    1.935240926781e-04
    15    7.360583065709e-05
    16    2.393678885863e-04
    17    1.949297627396e-06
    18    1.171431928678e-04
    19   -1.328163124596e-06
    20   -3.624352493211e-05
    21   -2.226430001847e-04
    22    9.141473500856e-06
    23   -1.265947161028e-04
    24   -4.467133673774e-06
    25    9.314139734744e-06
    26   -1.911494102945e-05
    27   -2.395722029127e-05
    28   -2.469551424102e-05
    29    3.170941859490e-05
    30   -1.114372081836e-05
    31   -3.179091414338e-05
    32    2.157223342928e-01
    33    3.026573252735e-01
    34    9.310892106436e-03
    35   -2.432968412832e-03
    36    5.539406564190e-04
    37   -1.529964800004e-03
    38   -8.870784332078e-04
    39    6.504053336880e-04
    40    3.933070410202e-04
    41    2.637308457132e-04
    42   -1.544045647745e-04
    43   -2.226173783130e-04
    44   -1.317863156541e-04
    45    9.366155586404e-05
    46   -8.415324684674e-05
    47   -1.312048767308e-04
    48   -7.416483909048e-05
    49    1.016725525340e-04
    50    1.750318127507e-04
    51    6.475423528829e-05
    52    7.420557190850e-05
    53    5.605749582752e-05
    54   -5.251410536685e-05
    55   -1.243003561255e-04
    56    2.431704206254e-05
    57    1.670075206948e-05
    58   -3.341795623006e-05
    59    1.598276555452e-05
    60   -1.271297488489e-05
    61    1.064431210783e-05
    62    2.100595581437e-05
    63    2.329719111889e-01
    64    3.268529796657e-01
    65    1.025115363023e-02
    66   -3.214920009906e-03
    67    6.419342733306e-04
    68    6.974523211415e-04
    69   -9.738522463282e-04
    70   -1.680843863043e-03
    71   -3.465684357421e-04
    72    4.205517768594e-04
    73    7.576315828970e-04
    74    9.644486615465e-05
    75   -1.304034309734e-04
    76   -2.285520873267e-04
    77    1.413118212634e-04
    78   -1.323728710049e-04
    79    1.898289799669e-04
    80   -2.780341199303e-05
    81   -7.843188930604e-05
    82   -1.524050159691e-04
    83    1.666437526731e-04
    84   -2.007951962363e-04
    85    1.817460102482e-05
    86    8.563396654891e-05
    87    1.678125052058e-06
    88   -1.136066580188e-05
    89    4.019507895366e-05
    90    2.729678307326e-05
    91   -1.752350019977e-05
    92    2.980998060965e-05
    93   -2.736041796609e-05
    94    2.231345394735e-01
    95    3.130540915887e-01
    96    9.716854502066e-03
    97   -2.769450773148e-03
    98    5.924794502746e-04
    99   -4.663754653102e-04
   100    1.850202402992e-03
   101   -4.590964739777e-04
   102    1.133940186440e-04
   103   -6.481876389147e-04
   104    1.996901194819e-04
   105   -6.226485132866e-05
   106    2.618663050083e-04
   107   -6.828838034843e-05
   108   -1.140845105326e-04
   109    2.665894855860e-05
   110   -1.015360066240e-04
   111   -1.972739780350e-04
   112   -1.097091716186e-04
   113    9.875977652977e-05
   114   -1.981049838945e-05
   115    1.154354552975e-04
   116    1.723883172417e-04
   117    6.154963806406e-05
   118   -4.224916562770e-05
   119    2.784108384602e-05
   120    1.196499796646e-05
   121    1.357147380547e-07
   122    1.346750460504e-05
   123   -2.056314702813e-05
   124    1.750654333808e-05
Sym=X
Ene= -15.749954
Spin=Alpha
Occup=1
     1   -1.213455621780e-01
     2   -1.702325940949e-01
     3   -6.274748974395e-03
     4    5.163700767163e-03
     5   -3.964920117966e-04
     6   -8.471835446846e-04
     7    5.624330889431e-05
     8   -7.553181382994e-04
     9    9.380834718773e-04
    10    1.395756669639e-03
    11    3.099582189113e-03
    12    5.813517732041e-05
    13   -3.639124686750e-05
    14    2.827402944823e-06
    15    8.679049204729e-05
    16   -9.905822330038e-05
    17    9.694542540287e-05
    18   -7.457422118660e-05
    19    4.864054615170e-05
    20    1.157790555130e-03
    21    6.115431741245e-04
    22    8.367609568929e-04
    23    1.218398418308e-04
    24    3.817619706602e-04
    25    1.776344711857e-04
    26    1.639504670932e-04
    27    1.582711144276e-04
    28    1.071421010041e-05
    29    1.353225107783e-04
    30    1.268511057527e-06
    31    6.017775481069e-05
    32   -7.094727145276e-02
    33   -9.953020755137e-02
    34   -3.645060473791e-03
    35    2.915833570282e-03
    36   -2.470269631061e-04
    37    5.239540040911e-04
    38    3.727192282502e-04
    39   -1.728517905180e-04
    40   -1.611188401176e-03
    41    7.947373173162e-04
    42    1.932106532019e-03
    43   -1.798875464200e-06
    44   -4.772706380787e-05
    45   -2.738575841662e-05
    46    9.254591484208e-05
    47   -7.956407728762e-05
    48    4.704606923590e-05
    49    4.248889448247e-05
    50   -1.041439308322e-04
    51    4.728278784803e-04
    52   -1.152142870123e-03
    53    1.525262966214e-04
    54    7.137654214410e-04
    55   -2.163924259741e-04
    56   -4.879314122210e-05
    57   -1.819673757700e-04
    58   -4.345681882867e-05
    59    2.251436856663e-04
    60    7.027628180191e-06
    61   -1.402377217134e-04
    62    8.931134779151e-07
    63    3.763012951533e-01
    64    5.278956279224e-01
    65    1.964322571960e-02
    66   -1.638875832205e-02
    67    1.325497405565e-03
    68    1.209114357501e-03
    69   -1.659182546890e-03
    70   -2.895313703742e-03
    71   -2.945296497700e-03
    72    4.659370795604e-03
    73    7.193480840558e-03
    74   -4.316993382887e-05
    75    4.846972647418e-05
    76    1.027125281940e-04
    77    1.666276935717e-04
    78   -1.564640633693e-04
    79    1.895331524604e-04
    80   -6.792682893551e-06
    81   -7.122548598415e-05
    82   -1.215058369233e-03
    83    1.193716294554e-03
    84   -1.920587735482e-03
    85    4.324021412030e-04
    86    8.687661786854e-04
    87   -4.410189077141e-08
    88   -6.705184475717e-05
    89    1.859632419466e-04
    90   -2.092021438420e-05
    91   -1.346725767308e-04
    92    1.199621470625e-04
    93   -6.158931445361e-05
    94   -2.012581685421e-01
    95   -2.823372278934e-01
    96   -1.042707412057e-02
    97    8.495343473689e-03
    98   -7.223971977241e-04
    99    4.335584455540e-04
   100   -1.766421286113e-03
   101    5.131447766001e-04
   102   -1.458572094158e-03
   103    4.756179929247e-03
   104    6.783941884564e-04
   105   -1.887274924228e-06
   106    3.550056415577e-05
   107   -5.045569387522e-05
   108    4.475981559948e-05
   109   -6.422510365946e-05
   110    1.826039989276e-04
   111    8.506834591424e-05
   112    1.869703128579e-05
   113   -7.671572214310e-04
   114   -2.890877970644e-04
   115    4.667368680813e-04
   116   -1.307986712757e-03
   117   -9.341988355217e-04
   118   -7.890443258347e-05
   119    2.818339525676e-05
   120   -1.376883550321e-04
   121   -1.069660095399e-04
   122   -1.146478232735e-04
   123    1.911303518202e-04
   124   -1.190992762849e-04
Sym=X
Ene= -15.749942
Spin=Alpha
Occup=1
     1    3.675000321622e-01
     2    5.155495114420e-01
     3    1.912751484623e-02
     4   -1.579978710076e-02
     5    1.294131903345e-03
     6    2.442832656522e-03
     7    2.307940509189e-05
     8    2.446138911371e-03
     9   -6.398757527835e-03
    10    5.785219731938e-04
    11   -5.928076504603e-03
    12   -7.135922561087e-05
    13   -1.454490553082e-05
    14   -8.533402383692e-05
    15    1.017011039239e-04
    16    2.501630438939e-04
    17    3.581023433025e-05
    18    1.256930613870e-04
    19    2.460342249665e-05
    20   -4.235252203012e-04
    21   -2.346561336725e-03
    22    2.890533457281e-04
    23   -1.157544328795e-03
    24    2.166614716936e-04
    25    9.714593043455e-05
    26   -1.324173550431e-04
    27   -9.693857506170e-06
    28   -1.698103275826e-04
    29    1.298914618358e-04
    30   -6.088504435398e-05
    31   -3.638657941947e-05
    32   -1.267715793988e-01
    33   -1.778419752258e-01
    34   -6.559662524673e-03
    35    5.264228346918e-03
    36   -4.731422548379e-04
    37    9.239467011676e-04
    38    5.954991512819e-04
    39   -4.628869497342e-04
    40   -3.447273186106e-03
    41   -4.651822956051e-04
    42   -3.956012439512e-04
    43    1.173540622032e-05
    44   -3.320437637257e-05
    45    3.832452510701e-05
    46    4.470438652828e-06
    47    1.278092092716e-04
    48    9.084064747503e-05
    49    7.644601524236e-05
    50   -6.692732696571e-05
    51   -5.037101346491e-04
    52    2.368485770785e-04
    53    2.635721628031e-04
    54    1.315892143620e-03
    55    6.105007434054e-04
    56    7.380194005159e-05
    57    1.215075105761e-04
    58    5.043095203843e-05
    59   -3.853986528876e-06
    60   -8.832984587470e-05
    61   -1.952725614979e-04
    62   -1.913148349675e-04
    63   -2.511657071659e-02
    64   -3.523627296102e-02
    65   -1.293419280206e-03
    66    1.097980949503e-03
    67   -5.507484841205e-05
    68   -1.489183435627e-04
    69    1.350421575813e-04
    70    1.449521280673e-04
    71   -1.551369835342e-03
    72    3.498212901025e-04
    73   -1.601547945743e-03
    74    5.116014562797e-05
    75   -2.262224470645e-05
    76    1.038108244571e-05
    77    1.057551801059e-04
    78    1.114184759528e-04
    79    2.088740828697e-06
    80    1.740580373366e-05
    81    6.537547234770e-05
    82    1.062150093909e-03
    83    7.893670178911e-04
    84    2.618586419002e-04
    85    1.428833959979e-04
    86    4.397824501503e-04
    87   -2.251187539002e-04
    88   -1.066224364552e-04
    89   -1.601689391214e-04
    90    2.791335062390e-05
    91   -1.218941331766e-04
    92    6.309703853350e-05
    93   -4.626847354660e-06
    94   -2.238497227930e-01
    95   -3.140294764214e-01
    96   -1.162287753315e-02
    97    9.534502414814e-03
    98   -7.866399731208e-04
    99    4.436771462575e-04
   100   -2.005297952822e-03
   101    4.576628852622e-04
   102   -2.642642185105e-03
   103    4.376189487936e-03
   104   -2.128003054958e-03
   105    2.143650124712e-05
   106    7.288397542526e-05
   107    5.193183894095e-06
   108    1.062127871602e-04
   109    6.057075435756e-05
   110    2.770948858492e-05
   111    1.884961542294e-04
   112   -9.613692659653e-06
   113   -4.084470405269e-04
   114    8.370790750635e-04
   115   -9.503336397818e-04
   116   -6.666793736163e-04
   117   -1.282055439050e-03
   118    1.341332436245e-04
   119   -4.370438226359e-05
   120    2.355666670922e-05
   121    2.344464489564e-05
   122    1.935847584980e-04
   123    1.920076437513e-04
   124    5.001306045896e-05
Sym=X
Ene= -15.749918
Spin=Alpha
Occup=1
     1   -2.960807414436e-02
     2   -4.153391035893e-02
     3   -1.571552807043e-03
     4    1.300632835723e-03
     5   -1.321144421945e-04
     6   -1.631389618409e-04
     7    5.798406519650e-05
     8   -2.404939735461e-04
     9    1.530052469600e-03
    10    1.511521195195e-03
    11   -5.268018076784e-04
    12   -2.160579121718e-05
    13   -3.362934795434e-05
    14    2.400683259602e-05
    15   -8.299623471821e-05
    16   -4.059133380130e-05
    17    5.333065565134e-05
    18    7.024635260643e-05
    19    1.039393231851e-04
    20   -5.834669319358e-04
    21    1.169118503031e-05
    22    4.333042359284e-04
    23    7.946775746912e-04
    24    8.922058294799e-04
    25   -6.969221567055e-05
    26   -1.465082401895e-04
    27    1.107834008095e-05
    28    8.516199757936e-05
    29    1.627545906403e-04
    30    1.397781409973e-04
    31    1.703838572946e-04
    32    3.663457780311e-01
    33    5.139323966368e-01
    34    1.898100678518e-02
    35   -1.548922117285e-02
    36    1.267019712949e-03
    37   -2.805116795599e-03
    38   -1.593430852719e-03
    39    1.171220916002e-03
    40    6.483066161409e-03
    41    4.613153164175e-03
    42   -3.181644891467e-03
    43    9.778311109091e-05
    44    3.483516435681e-05
    45   -3.236799987306e-05
    46   -9.079760637110e-05
    47   -1.364110179316e-04
    48   -5.608461346100e-05
    49    1.630615266342e-04
    50    1.848573828724e-04
    51    8.860363814144e-04
    52    1.330939168540e-03
    53    9.585860631371e-04
    54   -5.432115302728e-04
    55   -1.800399655247e-03
    56    1.632076537986e-04
    57    1.132465453912e-05
    58   -9.858589220953e-05
    59    1.234515808483e-05
    60   -1.625034740538e-04
    61   -5.568091471121e-05
    62    1.225618882201e-04
    63   -7.305289274581e-02
    64   -1.024818080701e-01
    65   -3.841106681032e-03
    66    3.267534305423e-03
    67   -2.486994782513e-04
    68   -1.946429772323e-04
    69    3.939831057778e-04
    70    5.409101818840e-04
    71    1.648518059479e-03
    72    8.767429811535e-04
    73   -2.048676761108e-03
    74   -1.438711981770e-05
    75   -5.255836207097e-05
    76   -1.502942540432e-05
    77    1.548245072324e-05
    78   -5.961161590150e-05
    79   -1.014654938856e-04
    80    1.082542758738e-04
    81    6.167484803461e-05
    82    6.333456979489e-04
    83   -1.003585312325e-03
    84   -1.497431442373e-04
    85    8.294256446573e-04
    86    2.592102422993e-04
    87   -4.911545592428e-05
    88    1.838518092305e-04
    89   -2.846214838134e-05
    90   -2.299255441340e-04
    91   -2.341169775574e-05
    92    1.200746277211e-04
    93   -4.471397181646e-05
    94   -2.478820105591e-01
    95   -3.477423452096e-01
    96   -1.292609058069e-02
    97    1.075205703673e-02
    98   -8.494312814061e-04
    99    6.112480321803e-04
   100   -2.191383768125e-03
   101    5.240063405711e-04
   102    9.105687187779e-05
   103    5.833999030520e-03
   104   -1.982273736211e-03
   105   -5.958531447772e-05
   106    7.762277519875e-05
   107   -7.707546477869e-06
   108    7.266179999597e-05
   109   -4.995147933676e-05
   110    1.959785089468e-05
   111    1.196282384828e-04
   112    1.816768756867e-04
   113   -8.620472780533e-04
   114   -9.687336156211e-05
   115   -1.171602265261e-03
   116   -1.484406867950e-03
   117    1.868058850432e-04
   118    1.662800489675e-04
   119   -4.555673216465e-05
   120   -7.794752193491e-05
   121    1.479473912256e-04
   122   -6.933828337445e-05
   123   -8.892890746266e-05
   124   -1.506949541746e-04
Sym=X
Ene= -1.653090
Spin=Alpha
Occup=1
     1   -4.575315962525e-02
     2   -1.055961820638e-01
     3    1.490582573134e-01
     4    1.789618912463e-01
     5    1.832271224930e-02
     6    5.962198958144e-02
     7    1.004345394832e-05
     8    6.008683174713e-02
     9    5.105663998696e-02
    10    3.610339904770e-06
    11    5.118182224793e-02
    12    3.265593608445e-03
    13    8.549212606478e-07
    14    3.265551476017e-03
    15    2.054882644632e-03
    16    6.852611101221e-03
    17    5.107625984954e-05
    18    3.381237342926e-03
    19   -4.770233056110e-05
    20    4.521669090849e-03
    21    1.564704757966e-02
    22    7.674296512434e-05
    23    7.819753594671e-03
    24   -7.420847553497e-05
    25   -5.413651737293e-04
    26    2.055567977100e-03
    27    1.023969491515e-03
    28    2.145364307196e-03
    29   -1.209445429000e-03
    30    8.702862047121e-04
    31    1.183927674524e-03
    32   -4.544456526679e-02
    33   -1.048848683149e-01
    34    1.481734178261e-01
    35    1.775769012987e-01
    36    1.842266749222e-02
    37   -6.823099533163e-02
    38   -3.955568170817e-02
    39    2.919567184240e-02
    40   -5.817245425069e-02
    41   -3.373645915259e-02
    42    2.479394509446e-02
    43   -3.804081677508e-03
    44   -2.169088715600e-03
    45    1.606646657017e-03
    46   -2.541107226979e-03
    47   -3.881106960618e-03
    48   -2.224702734145e-03
    49    2.961358000958e-03
    50    5.187691601290e-03
    51   -5.787805299051e-03
    52   -8.717902897662e-03
    53   -5.009757702086e-03
    54    6.752498318741e-03
    55    1.180053069210e-02
    56   -1.848993435373e-03
    57   -3.241276538174e-04
    58    1.595391197561e-03
    59    8.083470034812e-05
    60    1.518507142106e-03
    61   -5.988970881909e-04
    62   -2.222618002276e-03
    63   -4.606142223556e-02
    64   -1.063063209387e-01
    65    1.499281707081e-01
    66    1.803891361641e-01
    67    1.820736790356e-02
    68    2.862408604540e-02
    69   -4.024506741862e-02
    70   -6.940280487154e-02
    71    2.460139362019e-02
    72   -3.443462362758e-02
    73   -5.940357430718e-02
    74    1.547571932481e-03
    75   -2.183256876489e-03
    76   -3.701913057301e-03
    77    3.941912540165e-03
    78   -3.727826260514e-03
    79    5.315789601091e-03
    80   -7.250571617360e-04
    81   -2.187266569450e-03
    82    9.025550761306e-03
    83   -8.667080805199e-03
    84    1.219485346279e-02
    85   -1.666921443023e-03
    86   -5.069630154190e-03
    87   -2.708896159732e-04
    88    1.094976236114e-03
    89   -2.659643269334e-03
    90   -6.256488205933e-04
    91    1.488293539270e-03
    92   -1.413813856299e-03
    93    9.718151262038e-04
    94   -4.574899693358e-02
    95   -1.055863296578e-01
    96    1.490392048052e-01
    97    1.789649992192e-01
    98    1.831544381706e-02
    99   -2.021718898945e-02
   100    7.979176119967e-02
   101   -1.967314069173e-02
   102   -1.720710928314e-02
   103    6.816119584677e-02
   104   -1.687143455521e-02
   105   -1.136630514375e-03
   106    4.352238083188e-03
   107   -1.038666065379e-03
   108   -3.342469053929e-03
   109    7.603729710460e-04
   110   -3.000457045156e-03
   111   -5.681630499606e-03
   112   -3.087685718809e-03
   113   -7.592891840803e-03
   114    1.738216165261e-03
   115   -6.886256888013e-03
   116   -1.300292236127e-02
   117   -7.022203935093e-03
   118    2.119937690299e-03
   119   -8.445487497013e-04
   120   -1.324957319045e-03
   121    4.904494495150e-04
   122   -1.254505358830e-04
   123    1.996441432044e-03
   124   -1.607087602293e-03
Sym=X
Ene= -1.044403
Spin=Alpha
Occup=1
     1    5.623841755374e-02
     2    1.319042190505e-01
     3   -1.942491597946e-01
     4   -3.119229881626e-01
     5   -9.644884104152e-02
     6    6.963469093376e-02
     7   -1.894021024828e-02
     8   -6.127948547394e-02
     9    3.526348449858e-02
    10   -1.583441475356e-02
    11   -7.538959958539e-02
    12    8.082139357120e-03
    13   -2.753009901875e-03
    14   -1.131674098528e-02
    15   -8.046055495264e-03
    16    7.397668710485e-04
    17   -2.532673593106e-03
    18    4.723343152737e-03
    19   -1.757820909096e-04
    20   -1.715484535209e-02
    21   -9.145670641347e-03
    22   -4.829311511860e-03
    23    2.928841719643e-03
    24    1.970319283012e-04
    25   -2.437570887552e-03
    26   -2.591396028865e-03
    27   -1.571686290876e-03
    28    6.584450114261e-04
    29    9.646473165216e-05
    30    1.014002431727e-03
    31   -4.497092748352e-04
    32   -6.019131308167e-02
    33   -1.411690250845e-01
    34    2.079598685543e-01
    35    3.338278816515e-01
    36    1.034221873953e-01
    37    5.576930771254e-02
    38   -6.029023067222e-02
    39    2.937206660470e-02
    40    1.815477700473e-02
    41   -6.784116838481e-02
    42    3.731172474918e-02
    43    5.451603207999e-03
    44   -1.057237693032e-02
    45    5.611651947417e-03
    46    9.903203980722e-04
    47   -9.051722987240e-04
    48   -3.722619838471e-03
    49   -7.835066059729e-03
    50    1.541616963839e-03
    51   -2.918414561411e-03
    52   -8.107398339218e-03
    53   -1.032957664041e-02
    54   -9.002601240418e-03
    55    1.100639030904e-02
    56   -1.377595640325e-03
    57   -1.218474762042e-03
    58    7.452381504113e-04
    59   -1.380366513592e-03
    60    1.709724599811e-03
    61    2.373857239104e-03
    62    4.916817273941e-04
    63    3.317317762671e-02
    64    7.780764276993e-02
    65   -1.144991783179e-01
    66   -1.842409228324e-01
    67   -5.674091656716e-02
    68    1.134104734516e-01
    69    5.057097713902e-03
    70    3.984825918804e-02
    71    8.900693327564e-02
    72    1.366501373011e-02
    73    4.971237312031e-02
    74    1.605288407898e-02
    75    1.592040992101e-03
    76    7.315445922703e-03
    77   -6.161250871775e-03
    78   -9.096828286934e-03
    79   -2.538939342234e-03
    80    2.939696568855e-03
    81   -3.918036767014e-03
    82   -1.440862800941e-02
    83   -1.294285979624e-02
    84   -9.315331706498e-03
    85    5.383845197461e-03
    86   -4.341677306347e-03
    87    2.684220369588e-03
    88    2.173202739913e-03
    89    2.393183284357e-03
    90   -1.667949958589e-03
    91    1.736162296171e-03
    92    1.359273568114e-04
    93   -1.091103312748e-03
    94   -2.969745469568e-02
    95   -6.964990820627e-02
    96    1.024701539039e-01
    97    1.652175562761e-01
    98    5.086722763511e-02
    99    1.184805761700e-01
   100    2.317268969880e-02
   101   -1.156551468391e-02
   102    9.591536762397e-02
   103    3.653409709906e-02
   104   -1.398205926032e-02
   105    1.708114019827e-02
   106    4.986243444879e-03
   107   -2.101451517341e-03
   108   -5.531434669423e-04
   109   -3.821082931332e-03
   110   -2.317877557255e-03
   111   -4.152085496488e-03
   112    1.074863411379e-02
   113   -4.211549001532e-03
   114   -6.634883920325e-03
   115   -6.840167593421e-03
   116   -1.162439807505e-02
   117    1.638690972167e-02
   118    9.915961745641e-04
   119   -8.508614578542e-04
   120   -4.810799114607e-04
   121    1.419617007518e-03
   122   -2.147563703226e-03
   123   -3.239408543494e-03
   124   -2.466876703754e-03
Sym=X
Ene= -1.041029
Spin=Alpha
Occup=1
     1   -1.594450276141e-02
     2   -3.739854095317e-02
     3    5.504354602516e-02
     4    8.881919597741e-02
     5    2.773156833704e-02
     6   -1.301979860749e-03
     7   -1.283456084792e-01
     8   -1.817950234470e-03
     9    5.560694197720e-03
    10   -1.086118831604e-01
    11    5.485263857038e-03
    12    4.381717210511e-04
    13   -1.906738434499e-02
    14    4.731002062795e-04
    15   -1.065795511809e-03
    16    9.184721647005e-04
    17   -9.049204065612e-03
    18   -1.756878217267e-03
    19   -9.098437098466e-03
    20   -1.289312061622e-03
    21    5.083213129450e-03
    22   -1.591136295465e-02
    23   -2.295987275521e-03
    24   -1.602874074987e-02
    25   -8.407091614003e-04
    26    4.405934433573e-04
    27   -1.733125130189e-03
    28   -1.048665154125e-04
    29   -4.216953162748e-03
    30   -8.000082417168e-04
    31   -2.295322605416e-03
    32    4.286075912977e-02
    33    1.005309354467e-01
    34   -1.481161453725e-01
    35   -2.382012182896e-01
    36   -7.474224417432e-02
    37    3.287110355141e-02
    38   -9.811937730872e-02
    39   -3.984258382857e-02
    40    4.865947191468e-02
    41   -7.090195358659e-02
    42   -4.258703523682e-02
    43    7.054301060488e-03
    44   -1.332614522458e-02
    45   -6.890007483995e-03
    46   -3.664734290874e-03
    47    4.720974171474e-03
    48   -2.842354779744e-03
    49   -7.246605304359e-03
    50    5.516686896001e-03
    51   -3.849328528437e-03
    52    1.292016791466e-02
    53   -2.923031112242e-03
    54   -1.625698063191e-02
    55    3.175912865611e-03
    56    4.029712532347e-04
    57    1.825134601450e-03
    58    3.413046993936e-04
    59   -2.456838467379e-03
    60    5.023161394579e-04
    61    3.362511619785e-03
    62    2.837425290128e-04
    63    4.264636707564e-02
    64    1.000299528298e-01
    65   -1.470876298211e-01
    66   -2.380252170204e-01
    67   -7.396427844621e-02
    68   -3.977401800187e-02
    69   -9.901685086424e-02
    70    3.343654277086e-02
    71   -4.249185667275e-02
    72   -7.149401086325e-02
    73    4.959576226862e-02
    74   -6.714477168448e-03
    75   -1.350745289866e-02
    76    7.025986087638e-03
    77   -4.527423911506e-03
    78    4.686311344753e-03
    79    5.544379025614e-03
    80   -6.889609272377e-03
    81   -2.848517576237e-03
    82   -1.240108253361e-02
    83    1.288131414319e-02
    84    3.177133545932e-03
    85   -1.158044773358e-02
    86   -2.952269330112e-03
    87    1.595945797460e-03
    88   -2.109524551606e-03
    89    2.254989865968e-04
    90    3.565751390584e-03
    91    4.977605991895e-04
    92   -1.208591629399e-03
    93    4.037575452824e-04
    94   -6.956324216407e-02
    95   -1.631636076949e-01
    96    2.401609762341e-01
    97    3.874170543214e-01
    98    1.209796628895e-01
    99   -4.296913522774e-02
   100   -3.142079895188e-02
   101   -4.192306171219e-02
   102   -4.637387567704e-02
   103    1.315882625387e-02
   104   -4.534106946016e-02
   105   -7.371014182142e-03
   106   -6.772531971420e-04
   107   -7.235496964913e-03
   108    2.140665243898e-03
   109    3.114699445697e-03
   110   -2.987972128013e-03
   111    3.823256467956e-03
   112   -3.087957232367e-03
   113   -2.629898823944e-03
   114    7.382099717094e-03
   115   -1.096365005059e-02
   116   -4.277232741135e-03
   117   -1.124543374131e-02
   118    1.760345944851e-03
   119   -8.644872530491e-04
   120    7.945166847834e-04
   121    1.682088763567e-04
   122    1.279661658521e-03
   123    1.514713416540e-03
   124    1.117299393300e-03
Sym=X
Ene= -1.037705
Spin=Alpha
Occup=1
     1    5.607859618054e-02
     2    1.315405631234e-01
     3   -1.935149380936e-01
     4   -3.136026635651e-01
     5   -9.889925747616e-02
     6   -5.864128577628e-02
     7   -1.750834072376e-02
     8    7.222494785959e-02
     9   -7.422901937663e-02
    10   -1.501393732781e-02
    11    3.664912108522e-02
    12   -1.133509080657e-02
    13   -2.663720476169e-03