Process 0 of 1 is on He - thread support 0
initial socket setup ...start
initial socket setup ...done 
now start server 0 ... 
He 127.0.1
Q-Chem Developer Version! Running on 127.0.1.*
                  Welcome to Q-Chem
     A Quantum Leap Into The Future Of Chemistry


 Q-Chem 4.4, Q-Chem, Inc., Pleasanton, CA (2016)

 Y. Shao,  Z. Gan,  E. Epifanovsky,  A. T. B. Gilbert,  M. Wormit,  
 J. Kussmann,  A. W. Lange,  A. Behn,  J. Deng,  X. Feng,  D. Ghosh,  
 M. Goldey,  P. R. Horn,  L. D. Jacobson,  I. Kaliman,  F.Rob,  
 R. Z. Khaliullin,  T. Kus,  A. Landau,  J. Liu,  E. I. Proynov,  Y. M. Rhee,  
 R. M. Richard,  M. A. Rohrdanz,  R. P. Steele,  E. J. Sundstrom,  
 H. L. Woodcock III,  P. M. Zimmerman,  D. Zuev,  B. Albrecht,  E. Alguire,  
 B. Austin,  S. A. Baeppler,  G. J. O. Beran,  Y. A. Bernard,  E. Berquist,  
 K. Brandhorst,  K. B. Bravaya,  S. T. Brown,  D. Casanova,  C.-M. Chang,  
 Y. Chen,  S. H. Chien,  K. D. Closser,  M. P. Coons,  D. L. Crittenden,  
 S. Dasgupta,  M. Diedenhofen,  R. A. DiStasio Jr.,  H. Do,  A. D. Dutoi,  
 R. G. Edgar,  P.-T. Fang,  S. Fatehi,  Q. Feng,  L. Fusti-Molnar,  
 A. Ghysels,  A. Golubeva-Zadorozhnaya,  J. Gomes,  A. Gunina,  
 M. W. D. Hanson-Heine,  P. H. P. Harbach,  A. W. Hauser,  J. E. Herr,  
 E. G. Hohenstein,  Z. C. Holden,  K. Hui,  T.-C. Jagau,  H. Ji,  B. Kaduk,  
 K. Khistyaev,  Jaehoon Kim,  Jihan Kim,  R. A. King,  P. Klunzinger,  
 K. Koh,  D. Kosenkov,  T. Kowalczyk,  C. M. Krauter,  A. Kunitsa,  
 K. U. Lao,  A. Laurent,  K. V. Lawler,  J. Lee,  D. Lefrancois,  S. Lehtola,  
 S. V. Levchenko,  C. Y. Lin,  Y.-S. Lin,  F. Liu,  E. Livshits,  
 R. C. Lochan,  A. Luenser,  P. Manohar,  S. F. Manzer,  S.-P. Mao,  Y. Mao,  
 N. Mardirossian,  A. V. Marenich,  L. A. Martinez-Martinez,  S. A. Maurer,  
 N. J. Mayhall,  J.-M. Mewes,  A. F. Morrison,  K. Nanda,  T. S. Nguyen-Beck,  
 C. M. Oana,  R. Olivares-Amaya,  D. P. O'Neill,  J. A. Parkhill,  
 T. M. Perrine,  R. Peverati,  P. A. Pieniazek,  F. Plasser,  A. Prociuk,  
 D. R. Rehn,  E. Rosta,  N. J. Russ,  N. Sergueev,  S. M. Sharada,  
 S. Sharma,  D. W. Small,  A. Sodt,  T. Stauch,  T. Stein,  D. Stuck,  
 Y.-C. Su,  A. J. W. Thom,  T. Tsuchimochi,  L. Vogt,  O. Vydrov,  T. Wang,  
 M. A. Watson,  J. Wenzel,  A. White,  C. F. Williams,  V. Vanovschi,  
 K. Yao,  S. Yeganeh,  S. R. Yost,  Z.-Q. You,  I. Y. Zhang,  X. Zhang,  
 Y. Zhao,  B. R. Brooks,  G. K. L. Chan,  D. M. Chipman,  C. J. Cramer,  
 W. A. Goddard III,  M. S. Gordon,  W. J. Hehre,  A. Klamt,  
 H. F. Schaefer III,  M. W. Schmidt,  C. D. Sherrill,  D. G. Truhlar,  
 A. Warshel,  X. Xu,  A. Aspuru-Guzik,  R. Baer,  A. T. Bell,  N. A. Besley,  
 J.-D. Chai,  A. Dreuw,  B. D. Dunietz,  T. R. Furlani,  S. R. Gwaltney,  
 C.-P. Hsu,  Y. Jung,  J. Kong,  D. S. Lambrecht,  W. Liang,  C. Ochsenfeld,  
 V. A. Rassolov,  L. V. Slipchenko,  J. E. Subotnik,  T. Van Voorhis,  
 J. M. Herbert,  A. I. Krylov,  P. M. W. Gill,  M. Head-Gordon

 Contributors to earlier versions of Q-Chem not listed above: 
 R. D. Adamson,  J. Baker,  E. F. C. Byrd,  A. K. Chakraborty,  C.-L. Cheng,  
 H. Dachsel,  R. J. Doerksen,  G. Hawkins,  A. Heyden,  S. Hirata,  
 G. Kedziora,  F. J. Keil,  C. Kelley,  P. P. Korambath,  W. Kurlancheek,  
 A. M. Lee,  M. S. Lee,  D. Liotard,  I. Lotan,  P. E. Maslen,  N. Nair,  
 D. Neuhauser,  R. Olson,  B. Peters,  J. Ritchie,  N. E. Schultz,  
 N. Shenvi,  A. C. Simmonett,  K. S. Thanthiriwatte,  Q. Wu,  W. Zhang

 Please cite Q-Chem as follows:
 Y. Shao et al., Mol. Phys. 113, 184-215 (2015)
 DOI: 10.1080/00268976.2014.952696

 Q-Chem 4.4.1 for Intel X86 EM64T Linux

 Parts of Q-Chem use Armadillo 5.200.1 (Boston Tea Smuggler).
 http://arma.sourceforge.net/

 Q-Chem begins on Wed May 17 06:38:46 2017  


Host: 0

     Scratch files written to /home/vladimir/scratch/qchem20331//
 Parallel job on  1  processors

Checking the input file for inconsistencies... 	...done.

--------------------------------------------------------------
User input:
--------------------------------------------------------------
$comment0
$end

$rem
SYMMETRY              false
SYM_IGNORE            true
BASIS                 general
METHOD                HF
SCF_CONVERGENCE       8
MOLDEN_FORMAT         true
PRINT_ORBITALS        1000
$end

$basis
N     0 
S   6   1.00
  19730.8006470              0.21887984991E-03      
   2957.8958745              0.16960708803E-02      
    673.22133595             0.87954603538E-02      
    190.68249494             0.35359382605E-01      
     62.295441898            0.11095789217    
     22.654161182            0.24982972552    
S   2   1.00
      8.9791477428           0.40623896148    
      3.6863002370           0.24338217176    
S   1   1.00
      0.84660076805          1.0000000        
S   1   1.00
      0.33647133771          1.0000000        
S   1   1.00
      0.13647653675          1.0000000        
P   4   1.00
     49.200380510            0.55552416751E-02      
     11.346790537            0.38052379723E-01      
      3.4273972411           0.14953671029    
      1.1785525134           0.34949305230    
P   1   1.00
      0.41642204972          1.0000000        
P   1   1.00
      0.14260826011          1.0000000        
D   1   1.00
      1.65400000             1.0000000        
D   1   1.00
      0.46900000             1.0000000        
F   1   1.00
      1.09300000             1.0000000        
****
$end

$molecule
   0 1
   N       0.5200      0.5300      0.5100
   N      -0.5200     -0.5200      0.5200
   N      -0.5200      0.5200     -0.5200
   N       0.5200     -0.5200     -0.5200
$end
--------------------------------------------------------------
 ----------------------------------------------------------------
             Standard Nuclear Orientation (Angstroms)
    I     Atom           X                Y                Z
 ----------------------------------------------------------------
    1      N       0.5200000000     0.5300000000     0.5100000000
    2      N      -0.5200000000    -0.5200000000     0.5200000000
    3      N      -0.5200000000     0.5200000000    -0.5200000000
    4      N       0.5200000000    -0.5200000000    -0.5200000000
 ----------------------------------------------------------------
 Nuclear Repulsion Energy =   105.7779404621 hartrees
 There are       14 alpha and       14 beta electrons

 Q-Chem warning in module /home/peve/qchem/forms1/BasisType.C, line 1522:

 Setting pure/cartesian flag to 2111 for general basis


 Requested basis set is non-standard
 There are 44 shells and 124 basis functions

 Total QAlloc Memory Limit   2000 MB
 Mega-Array Size        61 MB
 MEM_STATIC part        62 MB

                       Distance Matrix (Angstroms)
             N (  1)   N (  2)   N (  3)
   N (  2)  1.477904
   N (  3)  1.463762  1.470782
   N (  4)  1.470850  1.470782  1.470782

 A cutoff of  1.0D-11 yielded    984 shell pairs
 There are      7944 function pairs (     10770 Cartesian)

 -------------------------------------------------------
 OpenMP Integral Computing Module                       
 Release: version 1.0, May 2013, Q-Chem Inc. Pittsburgh 
 -------------------------------------------------------
 Integral Job Info:
 Integral job number is                      11
 Integral operator is                         1
 short-range coefficients                     0
 long-range coefficients              100000000
 Omega coefficients                           0
 if combine SR and LR in K                    0
 Integral screening is                        0
 Integral computing path is                   2
 max size of driver memory is            800000
 size of driver memory is                776718
 size of scratch memory is              4283136
 max col of scratch BK array              10000
 max len of scratch array in speh3          662
 max len of scratch index in speh4           32
 max int batch size is                      520
 min int batch size is                       52
 fixed nKL is                                52
 max L of basis functions is                  3
 order of int derivative is                   0
 number of shells is                         44
 number of basis is                         144
 number of cartesian basis is               144
 number of contracted shell pairs           984
 number of primitive shell pairs           2748
 maxK2 (contraction) of shell pair           36
 max number of K2 of shell pair               1
 max number of CS2 of shell pair             96
 max number of PS2 of shell pair            288
 mem total for path MDJ                   52640
 -------------------------------------------------------
 Smallest overlap matrix eigenvalue = 1.43E-03

 Scale SEOQF with 1.000000e+00/1.000000e+00/1.000000e+00

 Standard Electronic Orientation quadrupole field applied
 Nucleus-field energy     =     0.0000000001 hartrees
 Guess MOs from core Hamiltonian diagonalization
 A restricted Hartree-Fock SCF calculation will be
 performed using Pulay DIIS extrapolation
 SCF converges when DIIS error is below 1.0E-08
 using 12 threads for integral computing 
 ---------------------------------------
  Cycle       Energy         DIIS Error
 ---------------------------------------
    1    -191.9727070057      1.41E-01
    2    -190.2428684528      8.95E-02
    3    -213.5138136258      4.85E-02
    4    -216.8527231283      2.23E-02
    5    -217.4008960425      1.03E-02
    6    -217.5918252984      1.18E-03
    7    -217.5980627800      4.82E-04
    8    -217.5991431931      2.71E-04
    9    -217.5993242478      7.08E-05
   10    -217.5993385059      2.21E-05
   11    -217.5993401908      2.99E-06
   12    -217.5993402475      1.72E-06
   13    -217.5993402652      1.08E-06
   14    -217.5993402734      3.28E-07
   15    -217.5993402743      1.01E-07
   16    -217.5993402742      3.29E-08
   17    -217.5993402744      6.62E-09 Convergence criterion met
 ---------------------------------------
 SCF time:  CPU 35.43 s  wall 3.50 s
 SCF   energy in the final basis set = -217.5993402744
 Total energy in the final basis set = -217.5993402744

 --------------------------------------------------------------

                    Orbital Energies (a.u.)
 --------------------------------------------------------------

 Alpha MOs
 -- Occupied --
-15.751 -15.750 -15.750 -15.750  -1.653  -1.044  -1.041  -1.038
 -0.686  -0.570  -0.569  -0.568  -0.534  -0.529
 -- Virtual --
  0.189   0.191   0.193   0.212   0.214   0.216   0.359   0.468
  0.469   0.470   0.478   0.479   0.538   0.542   0.544   0.546
  0.627   0.627   0.627   0.746   0.749   0.752   1.043   1.048
  1.053   1.370   1.446   1.450   1.628   1.632   1.635   1.705
  1.707   1.710   1.779   1.783   1.785   1.788   1.790   1.952
  1.953   1.953   2.149   2.348   2.350   2.352   2.481   2.483
  2.484   2.557   2.557   2.996   3.171   3.178   3.184   3.388
  3.482   3.482   3.483   3.755   3.759   3.764   3.891   3.957
  3.959   4.207   4.213   4.221   4.347   4.356   4.365   4.829
  4.833   4.837   4.871   4.872   4.875   4.877   4.879   4.883
  4.966   4.967   4.968   5.038   5.039   5.040   5.402   5.407
  5.412   5.507   5.507   5.727   5.732   5.738   5.867   6.094
  6.096   6.098   6.147   6.152   6.852   6.867   6.871   6.888
  6.893   6.907  32.985  33.221  33.227  33.232
 --------------------------------------------------------------


                        RESTRICTED (RHF) MOLECULAR ORBITAL COEFFICIENTS
                         1         2         3         4         5         6
 eigenvalues:        -15.751   -15.750   -15.750   -15.750    -1.653    -1.044
   1  N 1   s        0.22626  -0.12153   0.36743  -0.02968  -0.04575   0.05624
   2  N 1   s        0.31743  -0.17049   0.51545  -0.04163  -0.10560   0.13190
   3  N 1   s        0.00988  -0.00628   0.01912  -0.00158   0.14906  -0.19425
   4  N 1   s       -0.00290   0.00517  -0.01580   0.00130   0.17896  -0.31192
   5  N 1   s        0.00061  -0.00040   0.00129  -0.00013   0.01832  -0.09645
   6  N 1   px      -0.00115   0.00061  -0.00201   0.00012  -0.04888   0.01221
   7  N 1   py      -0.00115   0.00073  -0.00199   0.00015  -0.04881  -0.07646
   8  N 1   pz      -0.00115   0.00063  -0.00198   0.00023  -0.04892   0.05448
   9  N 1   px       0.00043  -0.00279   0.00456  -0.00164  -0.04174   0.02944
  10  N 1   py       0.00048  -0.00001   0.00552  -0.00082  -0.04183  -0.04522
  11  N 1   pz       0.00040  -0.00216   0.00501   0.00124  -0.04165   0.06532
  12  N 1   px      -0.00016   0.00000   0.00008   0.00003  -0.00267   0.00359
  13  N 1   py      -0.00016  -0.00007   0.00005   0.00001  -0.00268  -0.00947
  14  N 1   pz      -0.00016  -0.00001   0.00006  -0.00004  -0.00266   0.00991
  15  N 1   d 1      0.00016  -0.00009   0.00017   0.00009   0.00451   0.00458
  16  N 1   d 2      0.00016  -0.00012   0.00014  -0.00009   0.00457   0.00146
  17  N 1   d 3      0.00000   0.00003  -0.00000  -0.00009  -0.00000  -0.00507
  18  N 1   d 4      0.00016   0.00004   0.00020  -0.00004   0.00463  -0.00495
  19  N 1   d 5      0.00000   0.00009   0.00003   0.00003   0.00000  -0.00455
  20  N 1   d 1     -0.00017   0.00024  -0.00152   0.00101   0.01040   0.00134
  21  N 1   d 2     -0.00015  -0.00009  -0.00177  -0.00055   0.01043  -0.00441
  22  N 1   d 3      0.00002   0.00023   0.00002  -0.00076  -0.00012  -0.00856
  23  N 1   d 4     -0.00013   0.00137  -0.00128  -0.00011   0.01046  -0.01603
  24  N 1   d 5      0.00001   0.00076   0.00027   0.00022  -0.00006  -0.00764
  25  N 1   f 1      0.00003  -0.00008   0.00008  -0.00017  -0.00157   0.00031
  26  N 1   f 2     -0.00001  -0.00004   0.00010  -0.00000  -0.00103  -0.00033
  27  N 1   f 3      0.00002   0.00001   0.00011   0.00020  -0.00124   0.00155
  28  N 1   f 4     -0.00004   0.00004  -0.00014   0.00001   0.00212  -0.00030
  29  N 1   f 5      0.00002  -0.00017   0.00005   0.00014  -0.00129   0.00278
  30  N 1   f 6     -0.00000  -0.00024  -0.00008  -0.00007  -0.00002   0.00207
  31  N 1   f 7     -0.00003  -0.00008  -0.00014   0.00013   0.00161   0.00146
  32  N 2   s        0.21572  -0.07087  -0.12674   0.36638  -0.04544  -0.06019
  33  N 2   s        0.30265  -0.09943  -0.17779   0.51397  -0.10488  -0.14117
  34  N 2   s        0.00931  -0.00364  -0.00656   0.01898   0.14817   0.20796
  35  N 2   s       -0.00243   0.00291   0.00526  -0.01549   0.17758   0.33383
  36  N 2   s        0.00055  -0.00025  -0.00047   0.00127   0.01842   0.10342
  37  N 2   px       0.00108  -0.00045  -0.00067   0.00196   0.04812   0.01450
  38  N 2   py       0.00109  -0.00034  -0.00064   0.00200   0.04844  -0.07266
  39  N 2   pz      -0.00110   0.00036   0.00075  -0.00198  -0.04910  -0.04602
  40  N 2   px      -0.00031  -0.00079   0.00194  -0.00510   0.04107   0.03273
  41  N 2   py      -0.00026   0.00196   0.00291  -0.00429   0.04129  -0.04087
  42  N 2   pz       0.00028  -0.00158  -0.00016   0.00538  -0.04178  -0.05986
  43  N 2   px       0.00016   0.00005   0.00001  -0.00005   0.00266   0.00412
  44  N 2   py       0.00016  -0.00002  -0.00002  -0.00008   0.00271  -0.00877
  45  N 2   pz      -0.00016   0.00001  -0.00005   0.00005  -0.00270  -0.00890
  46  N 2   d 1      0.00015  -0.00007   0.00004   0.00019   0.00446  -0.00410
  47  N 2   d 2     -0.00016  -0.00007   0.00008  -0.00018  -0.00461   0.00182
  48  N 2   d 3      0.00000   0.00004  -0.00009  -0.00002   0.00007   0.00443
  49  N 2   d 4     -0.00015   0.00010   0.00014  -0.00013  -0.00459  -0.00448
  50  N 2   d 5     -0.00000  -0.00009  -0.00003  -0.00003  -0.00004   0.00443
  51  N 2   d 1     -0.00010  -0.00008   0.00132  -0.00126   0.01018  -0.00005
  52  N 2   d 2      0.00009  -0.00119  -0.00036   0.00140  -0.01041  -0.00428
  53  N 2   d 3     -0.00000   0.00031  -0.00071  -0.00021   0.00011   0.00765
  54  N 2   d 4      0.00011   0.00027   0.00015   0.00184  -0.01037  -0.01583
  55  N 2   d 5     -0.00001  -0.00074  -0.00027  -0.00021  -0.00007   0.00747
  56  N 2   f 1     -0.00002  -0.00011   0.00014  -0.00009   0.00155   0.00048
  57  N 2   f 2     -0.00001  -0.00002  -0.00004   0.00011  -0.00103   0.00038
  58  N 2   f 3     -0.00002   0.00018  -0.00010  -0.00010   0.00128   0.00136
  59  N 2   f 4     -0.00003   0.00002   0.00005  -0.00014   0.00207   0.00034
  60  N 2   f 5     -0.00002  -0.00001  -0.00017  -0.00016   0.00129   0.00257
  61  N 2   f 6      0.00000   0.00024   0.00008   0.00007   0.00001  -0.00203
  62  N 2   f 7      0.00002  -0.00004  -0.00019   0.00005  -0.00162   0.00124
  63  N 3   s        0.23298   0.37631  -0.02495  -0.07306  -0.04606   0.03317
  64  N 3   s        0.32686   0.52791  -0.03500  -0.10249  -0.10631   0.07781
  65  N 3   s        0.01025   0.01964  -0.00128  -0.00384   0.14993  -0.11450
  66  N 3   s       -0.00322  -0.01639   0.00109   0.00327   0.18039  -0.18424
  67  N 3   s        0.00064   0.00133  -0.00005  -0.00025   0.01821  -0.05674
  68  N 3   px       0.00120   0.00205  -0.00011  -0.00046   0.04963  -0.06661
  69  N 3   py      -0.00118  -0.00203   0.00020   0.00039  -0.04862  -0.09742
  70  N 3   pz       0.00119   0.00207  -0.00009  -0.00035   0.04929  -0.02341
  71  N 3   px      -0.00051  -0.00555   0.00100  -0.00055   0.04242  -0.06774
  72  N 3   py       0.00055   0.00522   0.00141  -0.00132  -0.04170  -0.07086
  73  N 3   pz      -0.00055  -0.00491   0.00145   0.00237   0.04220  -0.03115
  74  N 3   px       0.00016  -0.00006  -0.00001   0.00005   0.00267  -0.01083
  75  N 3   py      -0.00016   0.00007  -0.00005  -0.00001  -0.00263  -0.01328
  76  N 3   pz       0.00016  -0.00008  -0.00001  -0.00001   0.00262  -0.00448
  77  N 3   d 1     -0.00016  -0.00015   0.00008   0.00011  -0.00454  -0.00224
  78  N 3   d 2     -0.00016  -0.00019   0.00005  -0.00007  -0.00453  -0.00531
  79  N 3   d 3      0.00000   0.00002   0.00006   0.00007  -0.00000  -0.00222
  80  N 3   d 4      0.00017   0.00018   0.00010  -0.00005   0.00468  -0.00662
  81  N 3   d 5      0.00000  -0.00001   0.00008  -0.00006   0.00009  -0.00832
  82  N 3   d 1      0.00018   0.00174   0.00049   0.00039  -0.01050   0.00009
  83  N 3   d 2      0.00019   0.00141   0.00024  -0.00117  -0.01046  -0.00557
  84  N 3   d 3     -0.00000   0.00016   0.00051   0.00062  -0.00000  -0.00374
  85  N 3   d 4     -0.00017  -0.00157   0.00103   0.00017   0.01069  -0.01627
  86  N 3   d 5      0.00001  -0.00008   0.00065  -0.00050   0.00014  -0.01415
  87  N 3   f 1      0.00003   0.00014   0.00002   0.00014  -0.00163   0.00141
  88  N 3   f 2     -0.00001   0.00011  -0.00001  -0.00002  -0.00101  -0.00029
  89  N 3   f 3      0.00003   0.00004  -0.00004  -0.00022  -0.00125  -0.00015
  90  N 3   f 4      0.00004   0.00014  -0.00001  -0.00003  -0.00211   0.00024
  91  N 3   f 5     -0.00002  -0.00006   0.00020   0.00009   0.00128  -0.00212
  92  N 3   f 6      0.00000  -0.00002   0.00021  -0.00017   0.00006  -0.00383
  93  N 3   f 7      0.00003   0.00013   0.00015   0.00003  -0.00160  -0.00183
  94  N 4   s        0.22313  -0.20116  -0.22400  -0.24783  -0.04575  -0.02970
  95  N 4   s        0.31305  -0.28219  -0.31424  -0.34767  -0.10559  -0.06965
  96  N 4   s        0.00972  -0.01042  -0.01163  -0.01292   0.14904   0.10247
  97  N 4   s       -0.00277   0.00849   0.00954   0.01075   0.17896   0.16522
  98  N 4   s        0.00059  -0.00072  -0.00079  -0.00085   0.01832   0.05087
  99  N 4   px      -0.00113   0.00106   0.00127   0.00133  -0.04887  -0.06241
 100  N 4   py       0.00114  -0.00107  -0.00118  -0.00140   0.04919  -0.09921
 101  N 4   pz       0.00113  -0.00115  -0.00119  -0.00131   0.04853   0.03115
 102  N 4   px       0.00040  -0.00357  -0.00163  -0.00399  -0.04174  -0.06315
 103  N 4   py      -0.00035   0.00333   0.00400   0.00212   0.04196  -0.07347
 104  N 4   pz      -0.00044   0.00119   0.00347   0.00419   0.04152   0.03667
 105  N 4   px      -0.00016  -0.00001  -0.00007  -0.00004  -0.00267  -0.01016
 106  N 4   py       0.00016   0.00001   0.00001   0.00009   0.00272  -0.01367
 107  N 4   pz       0.00016   0.00006   0.00003   0.00003   0.00261   0.00556
 108  N 4   d 1     -0.00016   0.00000   0.00013   0.00016  -0.00459   0.00258
 109  N 4   d 2      0.00016  -0.00015  -0.00002  -0.00015   0.00457  -0.00486
 110  N 4   d 3     -0.00000  -0.00009   0.00003   0.00004  -0.00008   0.00293
 111  N 4   d 4     -0.00015   0.00013   0.00016   0.00003  -0.00455  -0.00679
 112  N 4   d 5     -0.00000   0.00001  -0.00008   0.00006  -0.00004   0.00825
 113  N 4   d 1      0.00012  -0.00162  -0.00067  -0.00063  -0.01047   0.00094
 114  N 4   d 2     -0.00013   0.00035   0.00167   0.00074   0.01043  -0.00516
 115  N 4   d 3     -0.00002  -0.00071   0.00019   0.00035  -0.00012   0.00496
 116  N 4   d 4      0.00016  -0.00048  -0.00042  -0.00174  -0.01039  -0.01625
 117  N 4   d 5     -0.00001   0.00006  -0.00065   0.00050  -0.00007   0.01400
 118  N 4   f 1     -0.00003   0.00019  -0.00004   0.00006   0.00161   0.00133
 119  N 4   f 2     -0.00001  -0.00006  -0.00006  -0.00007  -0.00102   0.00018
 120  N 4   f 3     -0.00002  -0.00012   0.00018   0.00007   0.00120   0.00011
 121  N 4   f 4      0.00003  -0.00008  -0.00009  -0.00009  -0.00211  -0.00012
 122  N 4   f 5      0.00003   0.00011  -0.00002  -0.00020  -0.00125  -0.00231
 123  N 4   f 6     -0.00000   0.00002  -0.00021   0.00017  -0.00003   0.00377
 124  N 4   f 7     -0.00002   0.00017   0.00009  -0.00004   0.00164  -0.00194
                         7         8         9        10        11        12
 eigenvalues:         -1.041    -1.038    -0.686    -0.570    -0.569    -0.568
   1  N 1   s       -0.01594   0.05608  -0.02251  -0.02376  -0.02528  -0.02323
   2  N 1   s       -0.03740   0.13154  -0.05371  -0.05669  -0.06033  -0.05545
   3  N 1   s        0.05504  -0.19351   0.09344   0.09822   0.10458   0.09618
   4  N 1   s        0.08882  -0.31360   0.13000   0.13513   0.14343   0.13146
   5  N 1   s        0.02773  -0.09890   0.10589   0.09093   0.09666   0.08868
   6  N 1   px       0.10607   0.00859   0.11413   0.02104   0.20810   0.01105
   7  N 1   py      -0.05138   0.05256   0.11570   0.02067   0.02561   0.20530
   8  N 1   pz      -0.05087  -0.07826   0.11257   0.20748   0.02764   0.02027
   9  N 1   px       0.08417   0.02747   0.10074   0.01636   0.19727   0.00731
  10  N 1   py      -0.04890   0.06457   0.10234   0.01622   0.02102   0.19528
  11  N 1   pz      -0.04880  -0.04642   0.09915   0.19653   0.02255   0.01602
  12  N 1   px       0.01520   0.00345   0.03807   0.01871   0.09315   0.01473
  13  N 1   py      -0.00814   0.00994   0.03870   0.01873   0.02145   0.09150
  14  N 1   pz      -0.00817  -0.00956   0.03745   0.09187   0.02189   0.01820
  15  N 1   d 1     -0.00393  -0.00459  -0.00691   0.00230  -0.00244  -0.00226
  16  N 1   d 2      0.00741   0.00163  -0.00684  -0.00266   0.00219  -0.00264
  17  N 1   d 3      0.00452   0.00631   0.00010  -0.00830   0.00410   0.00398
  18  N 1   d 4     -0.00388   0.00471  -0.00676  -0.00282  -0.00279   0.00245
  19  N 1   d 5     -0.00800   0.00225   0.00006   0.00006  -0.00695   0.00746
  20  N 1   d 1     -0.00524  -0.01579  -0.01703   0.00363  -0.00717  -0.00669
  21  N 1   d 2      0.01564  -0.00419  -0.01679  -0.00743   0.00328  -0.00744
  22  N 1   d 3      0.00775   0.01089   0.00033  -0.02172   0.01082   0.01046
  23  N 1   d 4     -0.00506   0.00147  -0.01657  -0.00768  -0.00775   0.00396
  24  N 1   d 5     -0.01360   0.00384   0.00019   0.00021  -0.01815   0.01952
  25  N 1   f 1      0.00241   0.00135   0.00206  -0.00057   0.00289  -0.00218
  26  N 1   f 2      0.00010  -0.00040   0.00538  -0.00053  -0.00063  -0.00064
  27  N 1   f 3     -0.00273  -0.00149   0.00153   0.00330  -0.00134  -0.00152
  28  N 1   f 4     -0.00017  -0.00120  -0.00266   0.00242  -0.00167  -0.00154
  29  N 1   f 5     -0.00064  -0.00203   0.00152   0.00338  -0.00147  -0.00126
  30  N 1   f 6      0.00365  -0.00097  -0.00005  -0.00000   0.00285  -0.00300
  31  N 1   f 7      0.00072  -0.00225  -0.00213   0.00048   0.00191  -0.00303
  32  N 2   s        0.04286   0.03355  -0.02251   0.04041  -0.00787  -0.00785
  33  N 2   s        0.10053   0.07870  -0.05373   0.09643  -0.01879  -0.01873
  34  N 2   s       -0.14812  -0.11587   0.09339  -0.16716   0.03254   0.03253
  35  N 2   s       -0.23820  -0.18736   0.13003  -0.22912   0.04453   0.04428
  36  N 2   s       -0.07474  -0.05931   0.10636  -0.15450   0.03031   0.02986
  37  N 2   px       0.08305  -0.06538  -0.11295   0.11461   0.00907  -0.17111
  38  N 2   py      -0.07347  -0.02227  -0.11351   0.12160  -0.16464   0.01838
  39  N 2   pz      -0.00078  -0.09625   0.11356  -0.18002  -0.07681  -0.07123
  40  N 2   px       0.05552  -0.06729  -0.09970   0.10457   0.00984  -0.16438
  41  N 2   py      -0.07695  -0.03084  -0.10016   0.11136  -0.15804   0.01880
  42  N 2   pz       0.01432  -0.06968   0.10003  -0.16740  -0.07546  -0.07005
  43  N 2   px       0.01083  -0.01112  -0.03757   0.06252   0.00007  -0.07103
  44  N 2   py      -0.01246  -0.00465  -0.03765   0.06559  -0.06784   0.00360
  45  N 2   pz       0.00148  -0.01314   0.03767  -0.08835  -0.02682  -0.02475
  46  N 2   d 1      0.00058  -0.00638  -0.00677   0.00054  -0.00285  -0.00284
  47  N 2   d 2      0.00539  -0.00514   0.00683  -0.00235   0.00128  -0.00340
  48  N 2   d 3     -0.00022   0.00819  -0.00006   0.00267   0.00707   0.00660
  49  N 2   d 4     -0.00591  -0.00199   0.00678  -0.00208  -0.00324   0.00158
  50  N 2   d 5      0.00790  -0.00213   0.00004  -0.00017   0.00682  -0.00731
  51  N 2   d 1     -0.00432  -0.01609  -0.01663   0.00383  -0.00683  -0.00693
  52  N 2   d 2      0.01533  -0.00515   0.01672  -0.00778   0.00336  -0.00703
  53  N 2   d 3     -0.00044   0.01401  -0.00012   0.00700   0.01854   0.01736
  54  N 2   d 4     -0.00545   0.00060   0.01662  -0.00710  -0.00667   0.00406
  55  N 2   d 5      0.01346  -0.00361   0.00006  -0.00047   0.01780  -0.01917
  56  N 2   f 1      0.00124  -0.00241  -0.00202   0.00004   0.00186  -0.00317
  57  N 2   f 2     -0.00026  -0.00014   0.00537   0.00095  -0.00017  -0.00015
  58  N 2   f 3     -0.00147   0.00284  -0.00162   0.00128   0.00276   0.00231
  59  N 2   f 4     -0.00050  -0.00115  -0.00260  -0.00045  -0.00252  -0.00233
  60  N 2   f 5      0.00070   0.00223  -0.00163   0.00122   0.00248   0.00257
  61  N 2   f 6     -0.00364   0.00101  -0.00003   0.00009  -0.00275   0.00300
  62  N 2   f 7      0.00187   0.00161   0.00207  -0.00013   0.00297  -0.00195
  63  N 3   s        0.04265  -0.06015  -0.02249  -0.00784  -0.00660   0.04033
  64  N 3   s        0.10003  -0.14110  -0.05368  -0.01869  -0.01575   0.09623
  65  N 3   s       -0.14709   0.20751   0.09346   0.03235   0.02733  -0.16682
  66  N 3   s       -0.23803   0.33642   0.12992   0.04470   0.03758  -0.22889
  67  N 3   s       -0.07396   0.10588   0.10535   0.03009   0.02503  -0.15409
  68  N 3   px       0.08335   0.01314  -0.11532  -0.17390   0.01478   0.12027
  69  N 3   py      -0.00131  -0.04545   0.11468  -0.07616  -0.08693  -0.17534
  70  N 3   pz      -0.07454  -0.07523  -0.11477   0.01710  -0.17252   0.12280
  71  N 3   px       0.05536   0.03279  -0.10181  -0.16679   0.01549   0.10992
  72  N 3   py       0.01384  -0.05965   0.10145  -0.07494  -0.08515  -0.16361
  73  N 3   pz      -0.07823  -0.04217  -0.10137   0.01797  -0.16574   0.11234
  74  N 3   px       0.01089   0.00422  -0.03860  -0.07179   0.00289   0.06576
  75  N 3   py       0.00121  -0.00891   0.03848  -0.02636  -0.03127  -0.08736
  76  N 3   pz      -0.01253  -0.00897  -0.03852   0.00341  -0.07132   0.06645
  77  N 3   d 1     -0.00595  -0.00446   0.00689   0.00140  -0.00376  -0.00203
  78  N 3   d 2      0.00537   0.00187   0.00684  -0.00365   0.00122  -0.00203
  79  N 3   d 3     -0.00684  -0.00607   0.00000   0.00296  -0.00976  -0.00108
  80  N 3   d 4      0.00048  -0.00419  -0.00690  -0.00311  -0.00338   0.00066
  81  N 3   d 5      0.00418  -0.00161  -0.00007  -0.00961  -0.00265  -0.00225
  82  N 3   d 1     -0.00550  -0.01589   0.01697   0.00361  -0.00804  -0.00728
  83  N 3   d 2      0.01531  -0.00422   0.01688  -0.00773   0.00316  -0.00718
  84  N 3   d 3     -0.01170  -0.01037  -0.00001   0.00776  -0.02561  -0.00286
  85  N 3   d 4     -0.00460   0.00012  -0.01698  -0.00738  -0.00801   0.00404
  86  N 3   d 5      0.00706  -0.00261  -0.00014  -0.02509  -0.00690  -0.00588
  87  N 3   f 1     -0.00187  -0.00150   0.00210   0.00358   0.00006   0.00041
  88  N 3   f 2     -0.00029   0.00040   0.00540  -0.00024  -0.00019   0.00105
  89  N 3   f 3      0.00317   0.00142   0.00159  -0.00095   0.00371   0.00025
  90  N 3   f 4     -0.00007  -0.00122   0.00264   0.00104  -0.00304  -0.00071
  91  N 3   f 5     -0.00210  -0.00185  -0.00161   0.00120  -0.00379  -0.00014
  92  N 3   f 6      0.00189  -0.00070  -0.00005  -0.00394  -0.00114  -0.00090
  93  N 3   f 7     -0.00020  -0.00211   0.00204  -0.00305  -0.00173  -0.00122
  94  N 4   s       -0.06956  -0.02900  -0.02251  -0.00865   0.03976  -0.00941
  95  N 4   s       -0.16316  -0.06803  -0.05371  -0.02064   0.09486  -0.02245
  96  N 4   s        0.24016   0.10018   0.09343   0.03569  -0.16444   0.03901
  97  N 4   s        0.38742   0.16166   0.12999   0.04919  -0.22552   0.05324
  98  N 4   s        0.12098   0.05120   0.10587   0.03341  -0.15195   0.03560
  99  N 4   px       0.06031  -0.06272   0.11411  -0.07065  -0.18303  -0.07128
 100  N 4   py       0.02248   0.03018  -0.11469  -0.17028   0.12017   0.00799
 101  N 4   pz       0.02118  -0.10126  -0.11357   0.01314   0.10761  -0.17948
 102  N 4   px       0.02670  -0.06329   0.10073  -0.06970  -0.17076  -0.07038
 103  N 4   py       0.04346   0.03576  -0.10120  -0.16322   0.11002   0.00915
 104  N 4   pz       0.04216  -0.07565  -0.10030   0.01411   0.09781  -0.17219
 105  N 4   px       0.00652  -0.01049   0.03807  -0.02388  -0.08966  -0.02402
 106  N 4   py       0.00578   0.00561  -0.03816  -0.07026   0.06526  -0.00120
 107  N 4   pz       0.00560  -0.01405  -0.03800   0.00149   0.05965  -0.07549
 108  N 4   d 1      0.00254  -0.00681   0.00688   0.00143  -0.00244  -0.00349
 109  N 4   d 2      0.00336  -0.00498  -0.00684  -0.00286   0.00038  -0.00324
 110  N 4   d 3      0.00230  -0.00855   0.00007   0.00281  -0.00179  -0.00959
 111  N 4   d 4      0.00257   0.00267   0.00679  -0.00337  -0.00195   0.00149
 112  N 4   d 5     -0.00421   0.00164   0.00004   0.00949   0.00253   0.00235
 113  N 4   d 1     -0.00421  -0.01620   0.01689   0.00371  -0.00808  -0.00716
 114  N 4   d 2      0.01500  -0.00546  -0.01680  -0.00682   0.00341  -0.00798
 115  N 4   d 3      0.00384  -0.01465   0.00010   0.00733  -0.00474  -0.02523
 116  N 4   d 4     -0.00407   0.00124   0.01670  -0.00700  -0.00681   0.00397
 117  N 4   d 5     -0.00723   0.00280   0.00006   0.02474   0.00660   0.00617
 118  N 4   f 1     -0.00071   0.00238  -0.00205   0.00306   0.00141   0.00156
 119  N 4   f 2      0.00045   0.00020   0.00538  -0.00023   0.00099  -0.00022
 120  N 4   f 3      0.00181  -0.00294  -0.00156   0.00126  -0.00039  -0.00372
 121  N 4   f 4     -0.00067  -0.00102   0.00265   0.00097  -0.00091  -0.00298
 122  N 4   f 5     -0.00074   0.00251   0.00155  -0.00082   0.00053   0.00374
 123  N 4   f 6     -0.00194   0.00075   0.00003   0.00380   0.00099   0.00101
 124  N 4   f 7      0.00097   0.00175  -0.00210  -0.00362  -0.00041  -0.00003
                        13        14        15        16        17        18
 eigenvalues:         -0.534    -0.529     0.189     0.191     0.193     0.212
   1  N 1   s        0.00055   0.00047   0.00388   0.00071   0.00384   0.03097
   2  N 1   s        0.00132   0.00114   0.00914   0.00167   0.00905   0.07279
   3  N 1   s       -0.00241  -0.00210  -0.00994  -0.00180  -0.00971  -0.07477
   4  N 1   s       -0.00280  -0.00240  -0.03411  -0.00626  -0.03420  -0.27896
   5  N 1   s       -0.00122  -0.00093  -0.26033  -0.04820  -0.26483  -2.34792
   6  N 1   px       0.13009  -0.13407   0.18106  -0.00855  -0.17373   0.06993
   7  N 1   py      -0.17926  -0.04993   0.08658   0.03468   0.24391   0.09292
   8  N 1   pz       0.04663   0.18238  -0.23654  -0.02048  -0.03951   0.06711
   9  N 1   px       0.12761  -0.13243   0.18638  -0.00766  -0.16887   0.11715
  10  N 1   py      -0.17625  -0.04943   0.09197   0.03582   0.25056   0.13411
  11  N 1   pz       0.04564   0.17973  -0.23063  -0.01941  -0.03403   0.12305
  12  N 1   px       0.06374  -0.06752   0.50935  -0.00219  -0.34851   0.74816
  13  N 1   py      -0.08865  -0.02535   0.27587   0.09154   0.63971   1.12387
  14  N 1   pz       0.02263   0.09110  -0.52932  -0.04198  -0.03098   0.40836
  15  N 1   d 1      0.00244   0.00927   0.00791   0.00087   0.00163   0.01129
  16  N 1   d 2      0.00679  -0.00683  -0.00496  -0.00000   0.00528   0.00291
  17  N 1   d 3     -0.00073  -0.00264  -0.00435  -0.00035  -0.00080  -0.00543
  18  N 1   d 4     -0.00933  -0.00255  -0.00208  -0.00070  -0.00596  -0.00526
  19  N 1   d 5     -0.00275   0.00070   0.00094  -0.00045  -0.00378  -0.00334
  20  N 1   d 1      0.00646   0.02470  -0.00101  -0.00038  -0.00370  -0.04776
  21  N 1   d 2      0.01783  -0.01806  -0.00680  -0.00086  -0.00144  -0.03817
  22  N 1   d 3     -0.00255  -0.00988   0.01108   0.00126   0.00202   0.00973
  23  N 1   d 4     -0.02428  -0.00668  -0.00548  -0.00121  -0.00830  -0.02914
  24  N 1   d 5     -0.00957   0.00262  -0.00238   0.00053   0.00980   0.00613
  25  N 1   f 1     -0.00158  -0.00303  -0.00018  -0.00149  -0.00085   0.00076
  26  N 1   f 2      0.00005   0.00005   0.00018   0.00003   0.00017   0.00126
  27  N 1   f 3     -0.00255   0.00266  -0.00023   0.00175  -0.00094   0.00134
  28  N 1   f 4     -0.00074  -0.00283  -0.00179  -0.00024  -0.00052  -0.00244
  29  N 1   f 5      0.00354   0.00107  -0.00036  -0.00177   0.00098   0.00205
  30  N 1   f 6      0.00402  -0.00109  -0.00016   0.00215  -0.00039   0.00048
  31  N 1   f 7      0.00014   0.00345   0.00082  -0.00135  -0.00097  -0.00089
  32  N 2   s       -0.00034   0.00027  -0.00331  -0.00053  -0.00091  -0.03818
  33  N 2   s       -0.00080   0.00065  -0.00780  -0.00125  -0.00213  -0.08969
  34  N 2   s        0.00140  -0.00122   0.00845   0.00128   0.00237   0.09160
  35  N 2   s        0.00183  -0.00133   0.02913   0.00471   0.00782   0.34726
  36  N 2   s        0.00160  -0.00030   0.22251   0.03912   0.05922   2.89697
  37  N 2   px      -0.13601   0.13428   0.13218  -0.18282   0.12580   0.07789
  38  N 2   py       0.18271   0.05234   0.13625   0.20875  -0.06555   0.11057
  39  N 2   pz       0.05129   0.18331   0.23675   0.02091   0.05215  -0.09845
  40  N 2   px      -0.13350   0.13237   0.13634  -0.18226   0.12636   0.13750
  41  N 2   py       0.17970   0.05182   0.14070   0.20989  -0.06461   0.16454
  42  N 2   pz       0.05040   0.18044   0.23113   0.01994   0.05011  -0.16418
  43  N 2   px      -0.06698   0.06742   0.38634  -0.42587   0.35521   0.84408
  44  N 2   py       0.08982   0.02644   0.38983   0.51246  -0.14383   1.24166
  45  N 2   pz       0.02531   0.09154   0.54446   0.04689   0.14991  -0.74747
  46  N 2   d 1      0.00252   0.00931  -0.00816  -0.00086  -0.00269  -0.00895
  47  N 2   d 2     -0.00686   0.00673  -0.00364   0.00511  -0.00452   0.00562
  48  N 2   d 3     -0.00087  -0.00289   0.00463   0.00047   0.00160   0.00335
  49  N 2   d 4      0.00939   0.00244  -0.00351  -0.00579   0.00209  -0.00287
  50  N 2   d 5     -0.00298   0.00062  -0.00001   0.00371  -0.00210   0.00328
  51  N 2   d 1      0.00661   0.02478   0.00038   0.00041   0.00102   0.05321
  52  N 2   d 2     -0.01798   0.01774  -0.00554   0.00214  -0.00221  -0.04939
  53  N 2   d 3     -0.00302  -0.01042  -0.01091  -0.00115  -0.00324  -0.00524
  54  N 2   d 4      0.02468   0.00645  -0.00564  -0.00369   0.00013  -0.04045
  55  N 2   d 5     -0.01031   0.00227  -0.00007  -0.00915   0.00534  -0.00630
  56  N 2   f 1      0.00148   0.00300  -0.00027  -0.00162  -0.00092   0.00132
  57  N 2   f 2     -0.00002  -0.00005  -0.00015  -0.00003  -0.00006  -0.00163
  58  N 2   f 3      0.00248  -0.00279  -0.00064   0.00001   0.00201   0.00147
  59  N 2   f 4     -0.00070  -0.00271   0.00179   0.00018   0.00044   0.00266
  60  N 2   f 5     -0.00363  -0.00114   0.00013  -0.00004  -0.00195   0.00226
  61  N 2   f 6      0.00407  -0.00106   0.00052  -0.00085  -0.00188  -0.00040
  62  N 2   f 7     -0.00025  -0.00347   0.00085  -0.00148  -0.00048  -0.00152
  63  N 3   s        0.00030  -0.00031  -0.00061  -0.00055  -0.00299   0.01684
  64  N 3   s        0.00073  -0.00075  -0.00144  -0.00130  -0.00704   0.03958
  65  N 3   s       -0.00136   0.00131   0.00153   0.00131   0.00749  -0.04070
  66  N 3   s       -0.00153   0.00171   0.00559   0.00496   0.02667  -0.15101
  67  N 3   s       -0.00043   0.00154   0.04217   0.04180   0.20994  -1.28370
  68  N 3   px      -0.13025   0.12890  -0.11383   0.18750  -0.10802   0.00848
  69  N 3   py      -0.17808  -0.04596  -0.07209  -0.03437  -0.24184   0.09895
  70  N 3   pz      -0.04399  -0.17910   0.04803  -0.21655  -0.10547  -0.03442
  71  N 3   px      -0.12804   0.12726  -0.11387   0.18886  -0.10433  -0.02537
  72  N 3   py      -0.17528  -0.04531  -0.07395  -0.03550  -0.24789   0.11711
  73  N 3   pz      -0.04303  -0.17645   0.04904  -0.21611  -0.10151  -0.06122
  74  N 3   px      -0.06403   0.06461  -0.22788   0.47287  -0.19527   0.09614
  75  N 3   py      -0.08808  -0.02298  -0.14537  -0.08773  -0.60982   0.99536
  76  N 3   pz      -0.02147  -0.08989   0.12662  -0.51845  -0.19893  -0.35189
  77  N 3   d 1     -0.00253  -0.00924  -0.00120   0.00644   0.00339  -0.00310
  78  N 3   d 2     -0.00689   0.00677   0.00226  -0.00553   0.00317  -0.01268
  79  N 3   d 3     -0.00051  -0.00242  -0.00086   0.00364   0.00173  -0.00083
  80  N 3   d 4     -0.00928  -0.00247   0.00087   0.00073   0.00561  -0.01059
  81  N 3   d 5     -0.00258   0.00070   0.00101  -0.00159   0.00284  -0.00881
  82  N 3   d 1     -0.00667  -0.02437  -0.00126   0.00269  -0.00169   0.02242
  83  N 3   d 2     -0.01814   0.01791   0.00173  -0.00347  -0.00146   0.03186
  84  N 3   d 3     -0.00192  -0.00910   0.00182  -0.00959  -0.00472   0.00176
  85  N 3   d 4     -0.02419  -0.00652   0.00264   0.00129   0.00757  -0.00887
  86  N 3   d 5     -0.00928   0.00267  -0.00335   0.00417  -0.00805   0.01600
  87  N 3   f 1     -0.00166  -0.00304   0.00156   0.00063   0.00053   0.00037
  88  N 3   f 2     -0.00005  -0.00002  -0.00005  -0.00003  -0.00012   0.00063
  89  N 3   f 3     -0.00265   0.00262  -0.00144  -0.00055   0.00134  -0.00019
  90  N 3   f 4      0.00085   0.00294   0.00023  -0.00140  -0.00089   0.00119
  91  N 3   f 5     -0.00349  -0.00096  -0.00124  -0.00139   0.00101  -0.00151
  92  N 3   f 6     -0.00394   0.00108   0.00172   0.00078  -0.00095  -0.00134
  93  N 3   f 7     -0.00007  -0.00340  -0.00181   0.00041  -0.00035   0.00108
  94  N 4   s       -0.00060  -0.00050   0.00005   0.00038   0.00005  -0.00946
  95  N 4   s       -0.00143  -0.00121   0.00012   0.00089   0.00011  -0.02222
  96  N 4   s        0.00253   0.00214  -0.00010  -0.00079  -0.00009   0.02258
  97  N 4   s        0.00322   0.00269  -0.00046  -0.00341  -0.00042   0.08630
  98  N 4   s        0.00246   0.00211  -0.00449  -0.03271  -0.00421   0.73193
  99  N 4   px       0.13615  -0.12909  -0.16310   0.01374   0.19122   0.01543
 100  N 4   py       0.18049   0.04500  -0.12034  -0.20757   0.07155   0.08101
 101  N 4   pz      -0.05227  -0.18089  -0.04332   0.21769   0.11927   0.00473
 102  N 4   px       0.13389  -0.12717  -0.16401   0.01430   0.19093  -0.00636
 103  N 4   py       0.17772   0.04438  -0.12137  -0.20894   0.07149   0.08675
 104  N 4   pz      -0.05134  -0.17802  -0.04356   0.21711   0.11871   0.02317
 105  N 4   px       0.06727  -0.06451  -0.35141   0.04965   0.50831   0.18775
 106  N 4   py       0.08874   0.02238  -0.25665  -0.50700   0.18314   0.87207
 107  N 4   pz      -0.02594  -0.09076  -0.09929   0.52473   0.32120   0.02461
 108  N 4   d 1     -0.00244  -0.00924   0.00110  -0.00648  -0.00441   0.00540
 109  N 4   d 2      0.00688  -0.00674   0.00354  -0.00055  -0.00665  -0.01012
 110  N 4   d 3     -0.00088  -0.00244   0.00057  -0.00373  -0.00250   0.00308
 111  N 4   d 4      0.00938   0.00255   0.00241   0.00578  -0.00226  -0.01268
 112  N 4   d 5     -0.00294   0.00074  -0.00193  -0.00171   0.00310   0.00862
 113  N 4   d 1     -0.00636  -0.02433   0.00100  -0.00268  -0.00110  -0.01656
 114  N 4   d 2      0.01800  -0.01786   0.00337  -0.00050  -0.00192   0.02116
 115  N 4   d 3     -0.00300  -0.00905  -0.00169   0.00937   0.00597  -0.00563
 116  N 4   d 4      0.02472   0.00676   0.00258   0.00374  -0.00062   0.00181
 117  N 4   d 5     -0.01036   0.00266   0.00574   0.00470  -0.00727  -0.01580
 118  N 4   f 1      0.00146   0.00303   0.00161   0.00075   0.00064  -0.00021
 119  N 4   f 2     -0.00002  -0.00001  -0.00003   0.00002  -0.00003  -0.00042
 120  N 4   f 3      0.00250  -0.00258  -0.00097   0.00117  -0.00160  -0.00026
 121  N 4   f 4      0.00069   0.00294  -0.00025   0.00137   0.00083  -0.00090
 122  N 4   f 5      0.00359   0.00103  -0.00073   0.00030  -0.00188  -0.00136
 123  N 4   f 6     -0.00410   0.00106  -0.00134   0.00052  -0.00138   0.00139
 124  N 4   f 7      0.00019   0.00342  -0.00181   0.00031   0.00011   0.00048
                        19        20        21        22        23        24
 eigenvalues:          0.214     0.216     0.359     0.468     0.469     0.470
   1  N 1   s       -0.00439   0.03311   0.01981  -0.00723  -0.00053  -0.00792
   2  N 1   s       -0.01032   0.07772   0.04086  -0.00910  -0.00068  -0.01067
   3  N 1   s        0.01039  -0.07743   0.01368  -0.11747  -0.00823  -0.11856
   4  N 1   s        0.04034  -0.30674  -0.40739   0.38877   0.02857   0.43697
   5  N 1   s        0.34127  -2.61430   0.58039   1.26565   0.08396   1.13098
   6  N 1   px       0.03669   0.09593  -0.04500   0.09654  -0.00496   0.09228
   7  N 1   py      -0.04031   0.02932  -0.04561   0.08830   0.01277   0.09977
   8  N 1   pz      -0.02913   0.12018  -0.04441   0.10169   0.01190   0.08533
   9  N 1   px       0.01903   0.15045  -0.16509   0.13136  -0.21148   0.11050
  10  N 1   py      -0.04348   0.08977  -0.16733  -0.02386   0.11899   0.24266
  11  N 1   pz      -0.02968   0.16989  -0.16285   0.24443   0.11634  -0.02561
  12  N 1   px       0.52234   0.94370   0.31290  -0.91418   0.05181  -0.85929
  13  N 1   py      -0.42146   0.37756   0.31920  -0.83586  -0.12551  -0.94180
  14  N 1   pz      -0.43284   1.22001   0.30666  -0.95655  -0.11149  -0.78823
  15  N 1   d 1      0.00699  -0.00426   0.00663  -0.00718   0.00344  -0.01692
  16  N 1   d 2     -0.01436   0.00194   0.00658  -0.01155  -0.00950  -0.01145
  17  N 1   d 3     -0.00458   0.00497  -0.00011  -0.00405  -0.00330   0.00430
  18  N 1   d 4      0.00597   0.01333   0.00653  -0.01760   0.00357  -0.00612
  19  N 1   d 5      0.00782   0.00444  -0.00006  -0.00311   0.00639   0.00266
  20  N 1   d 1     -0.00242  -0.03460  -0.00825   0.10340   0.03091   0.04345
  21  N 1   d 2      0.02033  -0.04092  -0.00831   0.07576  -0.04493   0.07518
  22  N 1   d 3      0.00808  -0.00889   0.00030  -0.03206  -0.02746   0.03399
  23  N 1   d 4     -0.00118  -0.05244  -0.00836   0.04098   0.02946   0.10371
  24  N 1   d 5     -0.01420  -0.00814   0.00018  -0.02215   0.04741   0.01894
  25  N 1   f 1     -0.00057   0.00235  -0.00012  -0.00367  -0.00727  -0.00145
  26  N 1   f 2     -0.00018   0.00138  -0.00452  -0.00197  -0.00017  -0.00295
  27  N 1   f 3      0.00101   0.00145  -0.00005   0.00149   0.00691  -0.00651
  28  N 1   f 4     -0.00016  -0.00164   0.00008   0.00477   0.00120   0.00246
  29  N 1   f 5     -0.00059   0.00064  -0.00001   0.00394   0.00126  -0.00871
  30  N 1   f 6     -0.00107  -0.00043   0.00003   0.00447  -0.00981  -0.00395
  31  N 1   f 7      0.00100  -0.00200   0.00012   0.00782  -0.00151  -0.00216
  32  N 2   s       -0.02217   0.01189   0.01992   0.00833   0.00552  -0.00410
  33  N 2   s       -0.05205   0.02790   0.04114   0.01072   0.00736  -0.00563
  34  N 2   s        0.05261  -0.02759   0.01334   0.13126   0.08302  -0.05950
  35  N 2   s        0.20338  -0.11141  -0.41283  -0.45163  -0.29625   0.22539
  36  N 2   s        1.70159  -0.93994   0.61386  -1.39299  -0.82307   0.55583
  37  N 2   px       0.08054  -0.00466   0.04419   0.10536   0.05837  -0.05510
  38  N 2   py       0.00945  -0.02906   0.04404   0.10290   0.07343  -0.04773
  39  N 2   pz      -0.07617   0.05518  -0.04445  -0.11134  -0.06665   0.03646
  40  N 2   px       0.10934  -0.03353   0.16415   0.14794  -0.06775  -0.21380
  41  N 2   py       0.05365  -0.05006   0.16502   0.01326   0.25157  -0.08605
  42  N 2   pz      -0.10904   0.06519  -0.16508  -0.22765  -0.05857  -0.13152
  43  N 2   px       0.91823   0.17734  -0.30404  -0.99573  -0.54529   0.51133
  44  N 2   py      -0.00583  -0.27301  -0.30217  -0.96160  -0.69602   0.44379
  45  N 2   pz      -0.74844   0.81387   0.30373   1.04200   0.61902  -0.33955
  46  N 2   d 1      0.00175  -0.01027   0.00642   0.00932   0.00926  -0.01309
  47  N 2   d 2     -0.00573  -0.01206  -0.00649  -0.01245  -0.01425  -0.00036
  48  N 2   d 3     -0.00258   0.00753   0.00005   0.00319  -0.00054   0.00578
  49  N 2   d 4      0.01441  -0.00197  -0.00646  -0.01796  -0.00152   0.00471
  50  N 2   d 5     -0.00762  -0.00376  -0.00005   0.00231  -0.00589  -0.00229
  51  N 2   d 1      0.02367  -0.00209  -0.00741  -0.10500  -0.04538  -0.00628
  52  N 2   d 2     -0.01926   0.02764   0.00762   0.08825   0.01815  -0.07250
  53  N 2   d 3      0.00499  -0.01340  -0.00000   0.02507  -0.00814   0.04878
  54  N 2   d 4     -0.04067   0.01600   0.00802   0.05401   0.09233  -0.04369
  55  N 2   d 5      0.01355   0.00688  -0.00004   0.02346  -0.04773  -0.01835
  56  N 2   f 1      0.00156  -0.00125   0.00010  -0.00331  -0.00570  -0.00467
  57  N 2   f 2     -0.00094   0.00055  -0.00452   0.00272   0.00181  -0.00140
  58  N 2   f 3      0.00151   0.00036   0.00009   0.00014   0.00012   0.00959
  59  N 2   f 4      0.00114  -0.00012   0.00011  -0.00517  -0.00222  -0.00022
  60  N 2   f 5     -0.00006  -0.00019   0.00009   0.00264  -0.00553   0.00738
  61  N 2   f 6      0.00110   0.00066   0.00005  -0.00453   0.00978   0.00381
  62  N 2   f 7     -0.00120   0.00162  -0.00011   0.00763  -0.00301   0.00132
  63  N 3   s       -0.01786  -0.03868   0.01968  -0.00358   0.00494   0.00876
  64  N 3   s       -0.04196  -0.09084   0.04056  -0.00439   0.00629   0.01157
  65  N 3   s        0.04252   0.09091   0.01402  -0.06023   0.07987   0.13497
  66  N 3   s        0.16239   0.35543  -0.40172   0.19321  -0.27387  -0.47935
  67  N 3   s        1.39264   3.05711   0.54603   0.66149  -0.83028  -1.31070
  68  N 3   px       0.07802   0.10838   0.04584  -0.05676   0.05565   0.10881
  69  N 3   py      -0.04772  -0.04817  -0.04557   0.03889  -0.06025  -0.11154
  70  N 3   pz       0.00534   0.12605   0.04598  -0.05114   0.07478   0.09614
  71  N 3   px       0.10040   0.17335   0.16601  -0.21642  -0.07791   0.15035
  72  N 3   py      -0.07372  -0.11520  -0.16508  -0.13768  -0.04494  -0.23351
  73  N 3   pz       0.04379   0.18569   0.16516  -0.09751   0.25961  -0.00596
  74  N 3   px       0.87156   1.03898  -0.32197   0.54752  -0.51774  -1.01708
  75  N 3   py      -0.58152  -0.60883   0.32216  -0.35835   0.57144   1.05590
  76  N 3   pz      -0.10647   1.30110  -0.32370   0.48662  -0.70459  -0.90188
  77  N 3   d 1      0.01417  -0.00264  -0.00669   0.00453  -0.00073  -0.01849
  78  N 3   d 2     -0.00739   0.00336  -0.00667  -0.00015  -0.01398  -0.01249
  79  N 3   d 3      0.00809  -0.00426  -0.00002  -0.00133   0.00623  -0.00452
  80  N 3   d 4      0.00128  -0.01149   0.00674  -0.01408   0.00912   0.00919
  81  N 3   d 5     -0.00224  -0.00306   0.00006  -0.00706  -0.00222  -0.00147
  82  N 3   d 1     -0.03583  -0.04236   0.00860  -0.04687   0.09051   0.05557
  83  N 3   d 2     -0.01295  -0.04869   0.00900  -0.07429   0.01454   0.08790
  84  N 3   d 3     -0.01454   0.00783  -0.00001  -0.00882   0.04345  -0.02921
  85  N 3   d 4      0.01923   0.05737  -0.00921  -0.00666  -0.04433  -0.10822
  86  N 3   d 5      0.00439   0.00656   0.00001  -0.04957  -0.01931  -0.01341
  87  N 3   f 1     -0.00007  -0.00258  -0.00010   0.00218   0.00788   0.00143
  88  N 3   f 2     -0.00071  -0.00152  -0.00451  -0.00110   0.00159   0.00281
  89  N 3   f 3     -0.00145  -0.00155  -0.00001  -0.00284  -0.00649   0.00643
  90  N 3   f 4     -0.00190  -0.00206  -0.00007  -0.00220   0.00416   0.00313
  91  N 3   f 5      0.00103   0.00104   0.00004  -0.00343   0.00419  -0.00797
  92  N 3   f 6     -0.00030  -0.00020   0.00001  -0.01056  -0.00391  -0.00273
  93  N 3   f 7      0.00012  -0.00216  -0.00005  -0.00695   0.00442  -0.00088
  94  N 4   s        0.04443  -0.00648   0.01980   0.00289  -0.00993   0.00286
  95  N 4   s        0.10436  -0.01521   0.04086   0.00363  -0.01295   0.00388
  96  N 4   s       -0.10562   0.01531   0.01367   0.04738  -0.15460   0.04209
  97  N 4   s       -0.40592   0.05926  -0.40732  -0.16258   0.54075  -0.15009
  98  N 4   s       -3.43567   0.49964   0.58041  -0.51618   1.56985  -0.39439
  99  N 4   px       0.12179   0.00879  -0.04500  -0.04305   0.11872  -0.04319
 100  N 4   py      -0.09739   0.00771   0.04485   0.03195  -0.12711   0.03782
 101  N 4   pz      -0.11088   0.04920   0.04514   0.04003  -0.12353   0.01780
 102  N 4   px       0.19060  -0.00938  -0.16509  -0.18084   0.06496  -0.19205
 103  N 4   py      -0.17116   0.02050   0.16594  -0.14874  -0.19863   0.10644
 104  N 4   pz      -0.18225   0.04901   0.16422   0.10492  -0.18171  -0.17762
 105  N 4   px       1.26703   0.27660   0.31284   0.41331  -1.11308   0.40421
 106  N 4   py      -0.99588   0.02650  -0.31104  -0.28467   1.19483  -0.35532
 107  N 4   pz      -1.07632   0.73807  -0.31464  -0.37943   1.16137  -0.17300
 108  N 4   d 1     -0.00542  -0.01222  -0.00660  -0.00234   0.01408  -0.01273
 109  N 4   d 2      0.00124  -0.01048   0.00658  -0.00079  -0.01876  -0.00160
 110  N 4   d 3     -0.00057  -0.00834  -0.00008   0.00189  -0.00083  -0.00725
 111  N 4   d 4     -0.00717   0.00385  -0.00655  -0.01253   0.01355  -0.00167
 112  N 4   d 5      0.00221   0.00263  -0.00005   0.00609   0.00268   0.00163
 113  N 4   d 1      0.05736   0.00642   0.00790   0.04391  -0.10532  -0.02051
 114  N 4   d 2     -0.05251   0.01925  -0.00830  -0.06230   0.07754  -0.05919
 115  N 4   d 3      0.00178   0.01486  -0.00005   0.01694  -0.01082  -0.04969
 116  N 4   d 4      0.05842  -0.01160   0.00870  -0.01778  -0.10692   0.04064
 117  N 4   d 5     -0.00358  -0.00471  -0.00003   0.05197   0.01778   0.01210
 118  N 4   f 1     -0.00222   0.00109   0.00008   0.00211   0.00625   0.00498
 119  N 4   f 2      0.00183  -0.00023  -0.00451   0.00096  -0.00322   0.00090
 120  N 4   f 3     -0.00186  -0.00043   0.00005  -0.00133   0.00016  -0.00933
 121  N 4   f 4      0.00294   0.00034  -0.00010   0.00223  -0.00529  -0.00058
 122  N 4   f 5      0.00155   0.00020   0.00001  -0.00459  -0.00253   0.00798
 123  N 4   f 6      0.00042   0.00051  -0.00001   0.01057   0.00380   0.00251
 124  N 4   f 7     -0.00208   0.00139   0.00014  -0.00732   0.00298   0.00279
                        25        26        27        28        29        30
 eigenvalues:          0.478     0.479     0.538     0.542     0.544     0.546
   1  N 1   s        0.00021   0.00022  -0.01606  -0.02120  -0.01770   0.02447
   2  N 1   s        0.00029   0.00032  -0.03180  -0.05321  -0.04345   0.05953
   3  N 1   s        0.00308   0.00289  -0.09305   0.11853   0.07729  -0.09457
   4  N 1   s       -0.01103  -0.01119   1.56211   0.24780   0.37646  -0.62066
   5  N 1   s       -0.01336  -0.00842  -0.99934  -3.17213  -2.47958   3.33121
   6  N 1   px       0.05407  -0.05890  -0.00211  -0.17548   0.04398   0.17337
   7  N 1   py      -0.07847  -0.02288  -0.01924  -0.19018  -0.16295   0.00378
   8  N 1   pz       0.01844   0.07648   0.02849  -0.00465  -0.15872   0.19089
   9  N 1   px       0.19810  -0.20970  -0.15391  -0.18054   0.18838   0.21696
  10  N 1   py      -0.27661  -0.07910  -0.19213  -0.21024  -0.21725  -0.10973
  11  N 1   pz       0.07077   0.28200  -0.08881   0.15711  -0.20693   0.24923
  12  N 1   px      -0.43421   0.47816   0.61856   0.96186  -0.18681  -1.09865
  13  N 1   py       0.63529   0.18685   0.71306   1.05740   0.98075  -0.17465
  14  N 1   pz      -0.14682  -0.61705   0.44572  -0.01951   0.94020  -1.18455
  15  N 1   d 1      0.00210   0.00738   0.01829   0.00251   0.00113  -0.00357
  16  N 1   d 2      0.00522  -0.00492   0.01755  -0.00123   0.00474  -0.00362
  17  N 1   d 3     -0.00427  -0.01610  -0.00085  -0.00274   0.00113  -0.00087
  18  N 1   d 4     -0.00645  -0.00166   0.01712  -0.00178   0.00068  -0.00621
  19  N 1   d 5     -0.01600   0.00428  -0.00035  -0.00027  -0.00233  -0.00140
  20  N 1   d 1      0.00284   0.01688  -0.02212  -0.10863   0.01035   0.00105
  21  N 1   d 2      0.01065  -0.01506  -0.00515  -0.00679  -0.11181   0.01403
  22  N 1   d 3      0.01054   0.03914   0.00349   0.02550  -0.01180   0.01359
  23  N 1   d 4     -0.01858  -0.00660   0.00314  -0.00020   0.00866   0.11400
  24  N 1   d 5      0.03986  -0.01049   0.00130   0.00348   0.02705   0.02219
  25  N 1   f 1     -0.00365  -0.00046   0.00115   0.00574  -0.00428   0.00134
  26  N 1   f 2      0.00010   0.00012  -0.00901  -0.00327  -0.00327   0.00466
  27  N 1   f 3     -0.00247  -0.00131  -0.00055  -0.00474   0.00787  -0.00016
  28  N 1   f 4     -0.00123  -0.00453   0.00019   0.00142  -0.00192   0.00207
  29  N 1   f 5      0.00147  -0.00241  -0.00111  -0.00513  -0.00093  -0.00752
  30  N 1   f 6     -0.00099   0.00021  -0.00054  -0.00048  -0.00883  -0.00746
  31  N 1   f 7     -0.00305   0.00223  -0.00132  -0.00609   0.00138  -0.00397
  32  N 2   s       -0.00021   0.00011  -0.00768   0.03671  -0.00961   0.00970
  33  N 2   s       -0.00033   0.00016  -0.01124   0.08880  -0.02374   0.02321
  34  N 2   s       -0.00236   0.00151  -0.12899  -0.13217   0.04443  -0.02888
  35  N 2   s        0.01395  -0.00477   1.38319  -0.98946   0.19523  -0.31186
  36  N 2   s        0.00239  -0.00538   0.15434   4.92793  -1.33796   1.25790
  37  N 2   px      -0.05841   0.05827  -0.03652  -0.19833   0.10923   0.09855
  38  N 2   py       0.07612   0.02299  -0.05430  -0.21149  -0.09597  -0.07283
  39  N 2   pz       0.02238   0.07716   0.04693   0.12529  -0.14281   0.15733
  40  N 2   px      -0.20918   0.20980   0.12739  -0.21900   0.15731   0.22624
  41  N 2   py       0.28431   0.08330   0.09052  -0.24414  -0.24420  -0.10717
  42  N 2   pz       0.07951   0.28401  -0.10693   0.06793  -0.22174   0.27117
  43  N 2   px       0.46936  -0.47180  -0.37440   1.33029  -0.63683  -0.47976
  44  N 2   py      -0.61951  -0.18862  -0.27471   1.40828   0.50883   0.49012
  45  N 2   pz      -0.17906  -0.62091   0.33279  -0.89286   0.82632  -0.97303
  46  N 2   d 1      0.00184   0.00731   0.01649  -0.00854  -0.00043  -0.00051
  47  N 2   d 2     -0.00516   0.00471  -0.01664   0.00662  -0.00014   0.00525
  48  N 2   d 3     -0.00441  -0.01621   0.00024   0.00139   0.00169  -0.00217
  49  N 2   d 4      0.00729   0.00162  -0.01706   0.00628  -0.00403   0.00204
  50  N 2   d 5     -0.01621   0.00417   0.00018   0.00018   0.00209   0.00175
  51  N 2   d 1      0.00689   0.01822   0.00554   0.09169   0.03682  -0.05278
  52  N 2   d 2     -0.01427   0.01477  -0.01025  -0.04895  -0.01483  -0.10118
  53  N 2   d 3      0.00944   0.03757  -0.00098  -0.01200  -0.01907   0.02521
  54  N 2   d 4      0.01759   0.00651  -0.00102  -0.04247   0.10491   0.00087
  55  N 2   d 5      0.03733  -0.01062  -0.00179  -0.00261  -0.02556  -0.02193
  56  N 2   f 1      0.00366   0.00052  -0.00015   0.00319   0.00261  -0.00622
  57  N 2   f 2     -0.00005   0.00009  -0.00726   0.00782  -0.00169   0.00228
  58  N 2   f 3      0.00250   0.00115   0.00033  -0.00151   0.00010   0.00936
  59  N 2   f 4     -0.00108  -0.00449  -0.00008   0.00029  -0.00184   0.00214
  60  N 2   f 5     -0.00167   0.00222  -0.00036  -0.00200  -0.00884   0.00168
  61  N 2   f 6     -0.00063   0.00024   0.00068   0.00045   0.00869   0.00734
  62  N 2   f 7      0.00262  -0.00233   0.00002  -0.00343  -0.00534   0.00388
  63  N 3   s        0.00007  -0.00026  -0.01835  -0.00449  -0.00991  -0.03454
  64  N 3   s        0.00008  -0.00042  -0.03743  -0.01225  -0.02416  -0.08549
  65  N 3   s        0.00148  -0.00259  -0.08284   0.04648   0.04051   0.16648
  66  N 3   s       -0.00326   0.01602   1.60818  -0.11006   0.22171   0.61911
  67  N 3   s       -0.00974  -0.00037  -1.30312  -0.83711  -1.39652  -4.96468
  68  N 3   px      -0.05494   0.05454  -0.01294  -0.10382   0.10617   0.20271
  69  N 3   py      -0.07752  -0.01895  -0.02456  -0.15074  -0.14195  -0.13834
  70  N 3   pz      -0.01832  -0.07835   0.01836   0.06533  -0.09835   0.22169
  71  N 3   px      -0.19907   0.19893   0.10939  -0.27094   0.15135   0.17184
  72  N 3   py      -0.27366  -0.06999  -0.18543  -0.22885  -0.22247  -0.05389
  73  N 3   pz      -0.06557  -0.27350   0.17311   0.06075  -0.24826   0.20925
  74  N 3   px       0.44298  -0.44347  -0.54164   0.65126  -0.63656  -1.19871
  75  N 3   py       0.62871   0.15450   0.73836   0.75719   0.83475   0.87147
  76  N 3   pz       0.14505   0.62906  -0.71366  -0.28702   0.51198  -1.30087
  77  N 3   d 1     -0.00206  -0.00654  -0.01763   0.00260  -0.00393  -0.00250
  78  N 3   d 2     -0.00543   0.00499  -0.01827  -0.00054  -0.00016  -0.00275
  79  N 3   d 3     -0.00407  -0.01584   0.00025   0.00063  -0.00294   0.00041
  80  N 3   d 4     -0.00652  -0.00189   0.01775  -0.00431  -0.00056   0.00331
  81  N 3   d 5     -0.01596   0.00431  -0.00028  -0.00284  -0.00033   0.00033
  82  N 3   d 1     -0.00285  -0.01805   0.00683  -0.00624   0.10463   0.04088
  83  N 3   d 2     -0.01117   0.01157   0.02431   0.09370  -0.01825   0.05372
  84  N 3   d 3      0.01163   0.04172  -0.00171  -0.00592   0.03201  -0.00609
  85  N 3   d 4     -0.01705  -0.00249  -0.00409   0.05528   0.03738  -0.09184
  86  N 3   d 5      0.04107  -0.01066   0.00329   0.03090   0.00488  -0.00759
  87  N 3   f 1     -0.00362  -0.00037  -0.00042  -0.00289   0.00690  -0.00032
  88  N 3   f 2      0.00008  -0.00006  -0.00946   0.00018  -0.00193  -0.00579
  89  N 3   f 3     -0.00256  -0.00165   0.00134   0.00708  -0.00603   0.00096
  90  N 3   f 4      0.00127   0.00448   0.00043   0.00059  -0.00207   0.00176
  91  N 3   f 5     -0.00128   0.00287   0.00030   0.00414   0.00746  -0.00371
  92  N 3   f 6      0.00115  -0.00019   0.00150   0.01087   0.00148  -0.00275
  93  N 3   f 7      0.00321  -0.00213   0.00009   0.00057   0.00739  -0.00115
  94  N 4   s       -0.00036  -0.00035  -0.01451  -0.00160   0.03715   0.00519
  95  N 4   s       -0.00056  -0.00057  -0.02806  -0.00532   0.09120   0.01196
  96  N 4   s       -0.00415  -0.00378  -0.09877   0.03668  -0.16279  -0.00612
  97  N 4   s        0.02241   0.02176   1.52535  -0.18229  -0.78539  -0.22807
  98  N 4   s        0.00755   0.00121  -0.78148  -0.42344   5.21019   0.63334
  99  N 4   px       0.05939  -0.05402   0.00069  -0.13285   0.17144   0.12565
 100  N 4   py       0.07464   0.01770  -0.03852  -0.12101  -0.20731  -0.06010
 101  N 4   pz      -0.02387  -0.07930   0.01051   0.06070  -0.20501   0.13087
 102  N 4   px       0.20990  -0.19878  -0.15699  -0.20900   0.11939   0.23736
 103  N 4   py       0.27983   0.06916   0.08043  -0.28915  -0.18906  -0.10959
 104  N 4   pz      -0.08004  -0.27688   0.18098   0.06716  -0.18568   0.26184
 105  N 4   px      -0.47909   0.43804   0.59394   0.64373  -1.08347  -0.78353
 106  N 4   py      -0.60887  -0.14573  -0.38624   0.76309   1.29030   0.41280
 107  N 4   pz       0.19087   0.63536  -0.65698  -0.24253   1.26604  -0.66899
 108  N 4   d 1     -0.00167  -0.00646  -0.01706   0.00310   0.00442   0.00471
 109  N 4   d 2      0.00489  -0.00521   0.01732  -0.00452  -0.00496  -0.00004
 110  N 4   d 3     -0.00439  -0.01579   0.00037   0.00070  -0.00013   0.00281
 111  N 4   d 4      0.00741   0.00198  -0.01813  -0.00034   0.00418   0.00121
 112  N 4   d 5     -0.01626   0.00428   0.00041   0.00278   0.00043  -0.00072
 113  N 4   d 1     -0.00675  -0.01916  -0.00479  -0.01410  -0.05769  -0.09667
 114  N 4   d 2      0.01595  -0.01022  -0.00073   0.05736   0.07868  -0.05717
 115  N 4   d 3      0.01004   0.04062  -0.00336  -0.00828   0.00063  -0.03295
 116  N 4   d 4      0.01601   0.00294   0.02184   0.09142  -0.05861   0.01901
 117  N 4   d 5      0.03837  -0.01064  -0.00386  -0.03057  -0.00540   0.00889
 118  N 4   f 1      0.00368   0.00042   0.00045  -0.00012   0.00013   0.00764
 119  N 4   f 2     -0.00011  -0.00011  -0.00862   0.00080   0.00686   0.00157
 120  N 4   f 3      0.00265   0.00170  -0.00009   0.00385   0.00198  -0.00834
 121  N 4   f 4      0.00100   0.00439   0.00057   0.00057  -0.00144   0.00228
 122  N 4   f 5      0.00149  -0.00268   0.00181   0.00729  -0.00060   0.00549
 123  N 4   f 6      0.00063  -0.00030  -0.00147  -0.01080  -0.00152   0.00280
 124  N 4   f 7     -0.00278   0.00223   0.00092   0.00322   0.00057   0.00657
                        31        32        33        34        35        36
 eigenvalues:          0.627     0.627     0.627     0.746     0.749     0.752
   1  N 1   s       -0.00065   0.00014  -0.00070   0.00900   0.02140   0.00895
   2  N 1   s       -0.00161   0.00035  -0.00175   0.01644   0.03895   0.01624
   3  N 1   s        0.00462  -0.00100   0.00501   0.06162   0.15040   0.06446
   4  N 1   s        0.00547  -0.00119   0.00596  -0.96376  -2.33211  -0.99203
   5  N 1   s       -0.11135   0.02415  -0.12032   5.13094  11.99131   4.92304
   6  N 1   px       0.11470  -0.00335  -0.11970   0.01022  -0.04192   0.01115
   7  N 1   py       0.03365  -0.01805   0.15794   0.00058  -0.01542  -0.04312
   8  N 1   pz      -0.15930   0.02377  -0.05014  -0.04025  -0.01588   0.00019
   9  N 1   px       0.22529  -0.00929  -0.21751   0.09273  -0.31102   0.10665
  10  N 1   py       0.07073  -0.03468   0.30198   0.01190  -0.09590  -0.32616
  11  N 1   pz      -0.29876   0.04456  -0.08743  -0.32767  -0.09800   0.01951
  12  N 1   px      -1.30108   0.03849   1.32041  -0.51243  -3.34308  -0.43545
  13  N 1   py      -0.39022   0.20539  -1.77239  -0.84609  -2.49661  -2.19499
  14  N 1   pz       1.77788  -0.26268   0.54579  -2.19329  -2.46321  -0.77922
  15  N 1   d 1     -0.01252   0.00180  -0.00348  -0.00180  -0.01661  -0.00792
  16  N 1   d 2      0.00969  -0.00033  -0.00886  -0.00941  -0.01264  -0.00932
  17  N 1   d 3      0.01361  -0.00197   0.00397   0.00276  -0.00043  -0.00062
  18  N 1   d 4      0.00313  -0.00153   0.01266  -0.00784  -0.01625  -0.00185
  19  N 1   d 5     -0.00410  -0.00078   0.01379  -0.00043   0.00131  -0.00204
  20  N 1   d 1      0.12716  -0.01772   0.03601   0.02889   0.08423   0.03385
  21  N 1   d 2     -0.10112   0.00216   0.09389   0.04142   0.07906   0.03472
  22  N 1   d 3     -0.11021   0.01647  -0.03359   0.14209  -0.04165  -0.04885
  23  N 1   d 4     -0.03338   0.01717  -0.13796   0.03867   0.08306   0.02909
  24  N 1   d 5      0.03327   0.00616  -0.11705  -0.02690   0.06832  -0.13948
  25  N 1   f 1     -0.01124  -0.00162  -0.00046  -0.00110  -0.00526   0.00040
  26  N 1   f 2      0.00004  -0.00001   0.00005  -0.00121  -0.00214  -0.00059
  27  N 1   f 3      0.01315   0.00299  -0.00517  -0.00338  -0.00281  -0.00025
  28  N 1   f 4     -0.00395   0.00044  -0.00116   0.00052   0.00596   0.00292
  29  N 1   f 5      0.00723  -0.00594   0.01152  -0.00339  -0.00263  -0.00101
  30  N 1   f 6     -0.00454   0.00363   0.01792   0.00033  -0.00094   0.00185
  31  N 1   f 7      0.00920  -0.00439   0.00555   0.00187   0.00327   0.00385
  32  N 2   s        0.00056  -0.00002   0.00014   0.01847  -0.01334  -0.01005
  33  N 2   s        0.00137  -0.00007   0.00034   0.03371  -0.02428  -0.01825
  34  N 2   s       -0.00365   0.00055  -0.00105   0.12772  -0.09426  -0.07176
  35  N 2   s       -0.00533  -0.00054  -0.00088  -1.98689   1.45562   1.10279
  36  N 2   s        0.08992  -0.01080   0.02436  10.26477  -7.36337  -5.67158
  37  N 2   px       0.04524  -0.14761   0.05350   0.01371  -0.04072   0.01134
  38  N 2   py       0.10563   0.12534  -0.01089   0.00368  -0.01446  -0.04328
  39  N 2   pz       0.15712  -0.02248   0.04411  -0.04196  -0.00948   0.00417
  40  N 2   px       0.09288  -0.28107   0.10246   0.09298  -0.30918   0.10496
  41  N 2   py       0.20628   0.23613  -0.01813   0.01037  -0.09712  -0.32850
  42  N 2   pz       0.29700  -0.04276   0.08300  -0.32569  -0.09799   0.01728
  43  N 2   px      -0.52320   1.64932  -0.61038   2.16921  -2.52440  -0.56417
  44  N 2   py      -1.19438  -1.39855   0.11916   1.82958  -1.67936  -2.30829
  45  N 2   pz      -1.75394   0.25482  -0.50059  -3.10769   0.91860   1.06074
  46  N 2   d 1      0.01257  -0.00181   0.00368  -0.00961   0.01303   0.00831
  47  N 2   d 2      0.00378  -0.01173   0.00446   0.01398  -0.00578  -0.01036
  48  N 2   d 3     -0.01373   0.00199  -0.00399   0.00166   0.00191   0.00060
  49  N 2   d 4      0.00849   0.00996  -0.00088   0.01546  -0.00956  -0.00283
  50  N 2   d 5     -0.00305  -0.01356   0.00330   0.00048  -0.00118   0.00205
  51  N 2   d 1     -0.12734   0.01811  -0.03618   0.06564  -0.05463  -0.03847
  52  N 2   d 2     -0.03912   0.12291  -0.04628  -0.07214   0.04672   0.04264
  53  N 2   d 3      0.11157  -0.01603   0.03226   0.10242   0.11299   0.03608
  54  N 2   d 4     -0.08904  -0.10448   0.00985  -0.07443   0.05110   0.03430
  55  N 2   d 5      0.02557   0.11279  -0.02684   0.02658  -0.06866   0.13944
  56  N 2   f 1     -0.00881   0.00318  -0.00625   0.00373  -0.00374   0.00007
  57  N 2   f 2      0.00035  -0.00005   0.00005  -0.00198   0.00121   0.00106
  58  N 2   f 3      0.00747  -0.00906   0.00866   0.00434  -0.00066  -0.00077
  59  N 2   f 4      0.00351  -0.00050   0.00098   0.00320  -0.00487  -0.00305
  60  N 2   f 5      0.01299   0.00613  -0.00283   0.00423  -0.00040  -0.00145
  61  N 2   f 6     -0.00259  -0.01825  -0.00031  -0.00041   0.00095  -0.00185
  62  N 2   f 7      0.01151   0.00031  -0.00038  -0.00303   0.00177   0.00407
  63  N 3   s        0.00014  -0.00002   0.00060  -0.01039  -0.01289   0.01855
  64  N 3   s        0.00034  -0.00005   0.00148  -0.01897  -0.02347   0.03366
  65  N 3   s       -0.00096   0.00052  -0.00392  -0.07188  -0.09010   0.13239
  66  N 3   s       -0.00127  -0.00068  -0.00574   1.12500   1.40311  -2.04696
  67  N 3   s        0.02344  -0.00929   0.09713  -5.78446  -7.33438  10.47894
  68  N 3   px      -0.05204   0.14770  -0.06073   0.00960  -0.04036   0.01665
  69  N 3   py      -0.03921   0.01940  -0.16044   0.00284  -0.01046  -0.04452
  70  N 3   pz       0.01129  -0.12816  -0.10648  -0.04050  -0.01410   0.00606
  71  N 3   px      -0.09751   0.27778  -0.10713   0.09455  -0.31420   0.10154
  72  N 3   py      -0.07470   0.03646  -0.30386   0.01068  -0.10203  -0.32649
  73  N 3   pz       0.02364  -0.24343  -0.19463  -0.32528  -0.09814   0.01622
  74  N 3   px       0.57099  -1.65520   0.66137  -0.62720  -2.55032   2.22897
  75  N 3   py       0.43216  -0.21364   1.79885   1.04742   0.83510  -3.13624
  76  N 3   pz      -0.12886   1.43799   1.17757  -2.32396  -1.66847   1.89115
  77  N 3   d 1      0.00089  -0.01015  -0.00831  -0.00294  -0.00922   0.01545
  78  N 3   d 2     -0.00391   0.01169  -0.00460  -0.01051  -0.00543   0.01396
  79  N 3   d 3      0.00106  -0.01125  -0.00887  -0.00258   0.00003  -0.00125
  80  N 3   d 4     -0.00295   0.00151  -0.01260   0.00852   0.01274  -0.01023
  81  N 3   d 5     -0.00437   0.00840  -0.01083   0.00073  -0.00225  -0.00129
  82  N 3   d 1     -0.00873   0.10691   0.08781   0.03358   0.04981  -0.07327
  83  N 3   d 2      0.04165  -0.12338   0.04902   0.04348   0.04505  -0.07199
  84  N 3   d 3     -0.00881   0.09268   0.07435  -0.13744   0.00315  -0.07404
  85  N 3   d 4      0.03323  -0.01677   0.13776  -0.04285  -0.05464   0.06866
  86  N 3   d 5      0.03707  -0.06975   0.09200   0.03511  -0.13430  -0.07270
  87  N 3   f 1      0.00132   0.01082   0.00434   0.00123   0.00452  -0.00269
  88  N 3   f 2      0.00004  -0.00004   0.00037   0.00098   0.00140  -0.00172
  89  N 3   f 3     -0.00011  -0.01475   0.00091   0.00351   0.00225  -0.00165
  90  N 3   f 4      0.00018  -0.00294  -0.00263   0.00072   0.00328  -0.00577
  91  N 3   f 5     -0.00162   0.00227   0.01470  -0.00357  -0.00175   0.00201
  92  N 3   f 6      0.01015  -0.00926   0.01288   0.00038  -0.00197  -0.00093
  93  N 3   f 7     -0.00260   0.00613   0.00969   0.00217   0.00060  -0.00480
  94  N 4   s       -0.00004  -0.00010  -0.00004  -0.01745   0.00483  -0.01707
  95  N 4   s       -0.00009  -0.00023  -0.00008  -0.03186   0.00879  -0.03099
  96  N 4   s        0.00002  -0.00007  -0.00007  -0.12105   0.03392  -0.12152
  97  N 4   s        0.00078   0.00241   0.00107   1.88784  -0.52606   1.87418
  98  N 4   s       -0.00186  -0.00406  -0.00134  -9.64152   2.70617  -9.70025
  99  N 4   px      -0.12163   0.00389   0.11229   0.01389  -0.03918   0.01604
 100  N 4   py      -0.11033  -0.12413   0.01127  -0.00100  -0.01160  -0.04439
 101  N 4   pz      -0.01075   0.12924   0.10139  -0.04171  -0.01108  -0.00097
 102  N 4   px      -0.23056   0.00809   0.21196   0.09263  -0.31246   0.10200
 103  N 4   py      -0.20840  -0.23399   0.02089   0.01457  -0.10155  -0.32903
 104  N 4   pz      -0.02088   0.24543   0.19230  -0.32340  -0.09694   0.01841
 105  N 4   px       1.34963  -0.04723  -1.26811   2.07023  -1.73145   2.08442
 106  N 4   py       1.22742   1.39298  -0.12613  -1.62571   0.05120  -3.01409
 107  N 4   pz       0.12115  -1.44240  -1.14267  -2.98698   0.09114  -1.61114
 108  N 4   d 1     -0.00088   0.01019   0.00823  -0.00892   0.00583  -0.01482
 109  N 4   d 2     -0.00947   0.00027   0.00910   0.01296   0.00144   0.01285
 110  N 4   d 3     -0.00085   0.01116   0.00886  -0.00201  -0.00134   0.00127
 111  N 4   d 4     -0.00858  -0.00991   0.00087  -0.01503   0.00587  -0.00881
 112  N 4   d 5      0.01151   0.00607  -0.00635  -0.00069   0.00222   0.00111
 113  N 4   d 1      0.00967  -0.10728  -0.08549   0.06175  -0.02104   0.06907
 114  N 4   d 2      0.10088  -0.00282  -0.09416  -0.06884   0.01270  -0.06524
 115  N 4   d 3      0.00661  -0.09234  -0.07274  -0.10620  -0.07609   0.08667
 116  N 4   d 4      0.09112   0.10412  -0.00884   0.06989  -0.02187   0.06255
 117  N 4   d 5     -0.09582  -0.05045   0.05268  -0.03547   0.13372   0.07386
 118  N 4   f 1     -0.00130   0.00597   0.00998  -0.00366   0.00299  -0.00246
 119  N 4   f 2     -0.00007   0.00002  -0.00007   0.00163  -0.00048   0.00181
 120  N 4   f 3      0.00554  -0.00281  -0.01308  -0.00417  -0.00008  -0.00118
 121  N 4   f 4     -0.00040   0.00299   0.00262   0.00288  -0.00231   0.00562
 122  N 4   f 5      0.00422   0.01415   0.00042   0.00411   0.00057   0.00167
 123  N 4   f 6     -0.01722  -0.00530   0.00463  -0.00046   0.00184   0.00102
 124  N 4   f 7     -0.00037   0.01108   0.00367  -0.00265  -0.00083  -0.00456
                        37        38        39        40        41        42
 eigenvalues:          1.043     1.048     1.053     1.370     1.446     1.450
   1  N 1   s       -0.00303   0.00483  -0.00301   0.00204   0.00025   0.00025
   2  N 1   s       -0.00554   0.00883  -0.00550   0.01347   0.00071   0.00069
   3  N 1   s       -0.02952   0.04656  -0.02861  -0.24879  -0.00360  -0.00332
   4  N 1   s        0.51280  -0.81328   0.50318   1.71990   0.02574   0.02398
   5  N 1   s       -2.80193   4.54849  -2.88151  -0.76288  -0.05845  -0.05653
   6  N 1   px      -0.03251  -0.05760  -0.03349   0.00340   0.03759  -0.03491
   7  N 1   py       0.06807   0.01495  -0.01965   0.00249   0.01465   0.04987
   8  N 1   pz      -0.01970   0.01514   0.07168   0.00443  -0.04917  -0.01191
   9  N 1   px      -0.07195  -0.17232  -0.07469  -0.28695   0.12286  -0.12691
  10  N 1   py       0.18991   0.01915  -0.03888  -0.29725   0.04504   0.17082
  11  N 1   pz      -0.03790   0.01760   0.20320  -0.27650  -0.17066  -0.04595
  12  N 1   px       0.36113  -1.38028   0.38781   0.56129  -0.02202   0.05417
  13  N 1   py       1.09954  -0.86968   0.48394   0.57030   0.00348  -0.03224
  14  N 1   pz       0.45345  -0.86312   1.10377   0.55222   0.07344   0.03048
  15  N 1   d 1      0.00134  -0.00205  -0.00030  -0.00698   0.00572   0.00145
  16  N 1   d 2      0.00154  -0.00075   0.00189  -0.00652  -0.00416   0.00402
  17  N 1   d 3     -0.00321   0.00315   0.00800   0.00038  -0.00604  -0.00157
  18  N 1   d 4      0.00001  -0.00207   0.00161  -0.00609  -0.00154  -0.00543
  19  N 1   d 5     -0.00732  -0.00513  -0.00103   0.00022   0.00160  -0.00596
  20  N 1   d 1     -0.11397   0.12705   0.16738  -0.30744   0.39783   0.10083
  21  N 1   d 2     -0.15662  -0.10041  -0.15166  -0.29973  -0.29964   0.28998
  22  N 1   d 3     -0.13172   0.12742   0.33716   0.00409   0.08774   0.02232
  23  N 1   d 4      0.17116   0.12889  -0.11050  -0.29283  -0.11506  -0.40669
  24  N 1   d 5     -0.30513  -0.21722  -0.04161   0.00247  -0.02315   0.08451
  25  N 1   f 1     -0.00203   0.00099  -0.00457   0.00692   0.00733  -0.00084
  26  N 1   f 2      0.00187  -0.00329   0.00225   0.01093   0.00007   0.00006
  27  N 1   f 3     -0.00098   0.00464   0.00228   0.00540  -0.00854   0.00308
  28  N 1   f 4      0.00229  -0.00352   0.00196  -0.00965   0.00096   0.00002
  29  N 1   f 5     -0.00435   0.00219   0.00196   0.00569  -0.00598  -0.00668
  30  N 1   f 6     -0.00444  -0.00333  -0.00070   0.00003   0.00310  -0.01130
  31  N 1   f 7     -0.00041  -0.00266   0.00431  -0.00724  -0.00605  -0.00454
  32  N 2   s        0.00312  -0.00360  -0.00427   0.00206   0.00019   0.00000
  33  N 2   s        0.00566  -0.00657  -0.00781   0.01355   0.00057   0.00013
  34  N 2   s        0.03074  -0.03494  -0.04094  -0.24946  -0.00373  -0.00379
  35  N 2   s       -0.52469   0.61182   0.72345   1.71375   0.02507   0.02199
  36  N 2   s        2.90531  -3.38554  -4.08359  -0.72254  -0.03846   0.01674
  37  N 2   px      -0.03344  -0.06499   0.01234  -0.00308  -0.03712   0.03601
  38  N 2   py       0.06811   0.00674   0.02550  -0.00271  -0.01483  -0.04886
  39  N 2   pz       0.01764  -0.03683   0.06314   0.00418  -0.04879  -0.01296
  40  N 2   px      -0.07354  -0.18454   0.01331   0.28846  -0.12124   0.12993
  41  N 2   py       0.19101   0.00211   0.04817   0.29091  -0.04491  -0.16435
  42  N 2   pz       0.03176  -0.07925   0.18528  -0.28349  -0.16920  -0.04916
  43  N 2   px       0.37916  -1.17933  -0.79022  -0.55084   0.02833  -0.04361
  44  N 2   py       1.10941  -0.67059  -0.69407  -0.54784   0.00477   0.05986
  45  N 2   pz      -0.50406   0.47826   1.31446   0.55220   0.07313   0.01821
  46  N 2   d 1     -0.00138   0.00208   0.00036  -0.00671   0.00567   0.00141
  47  N 2   d 2      0.00177  -0.00021  -0.00192   0.00638   0.00401  -0.00400
  48  N 2   d 3      0.00296  -0.00548   0.00664   0.00011  -0.00615  -0.00167
  49  N 2   d 4     -0.00007  -0.00154  -0.00218   0.00632   0.00146   0.00555
  50  N 2   d 5      0.00727   0.00509   0.00089  -0.00002   0.00150  -0.00609
  51  N 2   d 1      0.11035  -0.17433   0.12296  -0.30077   0.40422   0.10805
  52  N 2   d 2     -0.15584  -0.14371   0.11139   0.29873   0.29984  -0.29521
  53  N 2   d 3      0.12377  -0.22760   0.27987  -0.00379   0.08149   0.02286
  54  N 2   d 4      0.16473   0.08508   0.15224   0.29596   0.11336   0.41034
  55  N 2   d 5      0.30763   0.22019   0.03942   0.00019  -0.02591   0.08751
  56  N 2   f 1     -0.00203  -0.00047   0.00458  -0.00698  -0.00730   0.00074
  57  N 2   f 2     -0.00210   0.00255   0.00310   0.01107   0.00032   0.00010
  58  N 2   f 3     -0.00084   0.00518  -0.00064  -0.00581   0.00863  -0.00322
  59  N 2   f 4     -0.00227   0.00263   0.00286  -0.00935   0.00074   0.00015
  60  N 2   f 5     -0.00438   0.00258  -0.00118  -0.00585   0.00590   0.00690
  61  N 2   f 6      0.00447   0.00317   0.00053   0.00003   0.00295  -0.01123
  62  N 2   f 7     -0.00025  -0.00110  -0.00495   0.00708   0.00600   0.00439
  63  N 3   s       -0.00438  -0.00365   0.00312   0.00203  -0.00000   0.00018
  64  N 3   s       -0.00800  -0.00668   0.00575   0.01340   0.00013   0.00053
  65  N 3   s       -0.04244  -0.03492   0.02936  -0.24815  -0.00404  -0.00344
  66  N 3   s        0.73243   0.60830  -0.52524   1.72661   0.02397   0.02366
  67  N 3   s       -4.05812  -3.43729   2.96551  -0.80909   0.01620  -0.03687
  68  N 3   px       0.01162  -0.06500  -0.03377  -0.00375  -0.03652   0.03543
  69  N 3   py       0.06062  -0.03659   0.01818   0.00278   0.01358   0.05021
  70  N 3   pz       0.02512   0.00855   0.07040  -0.00422   0.05018   0.01175
  71  N 3   px       0.01178  -0.18832  -0.07556   0.28550  -0.11969   0.12866
  72  N 3   py       0.17726  -0.08178   0.03504  -0.29024   0.04211   0.17245
  73  N 3   pz       0.04689   0.00641   0.19976   0.28274   0.17752   0.04634
  74  N 3   px      -0.78188  -1.19950   0.40126  -0.57337   0.03259  -0.04781
  75  N 3   py       1.30194   0.46140  -0.49821   0.57119  -0.00916  -0.03253
  76  N 3   pz      -0.68945  -0.68017   1.12573  -0.57643  -0.04554  -0.02290
  77  N 3   d 1     -0.00193  -0.00141  -0.00012   0.00675  -0.00560  -0.00153
  78  N 3   d 2     -0.00171  -0.00013   0.00174   0.00668   0.00418  -0.00416
  79  N 3   d 3     -0.00425  -0.00194  -0.00797   0.00003  -0.00588  -0.00144
  80  N 3   d 4      0.00060   0.00192  -0.00157  -0.00637  -0.00159  -0.00549
  81  N 3   d 5     -0.00530   0.00731   0.00118   0.00009   0.00161  -0.00591
  82  N 3   d 1      0.15118   0.08399   0.16677   0.30434  -0.39383  -0.10249
  83  N 3   d 2      0.10814  -0.14400  -0.15971   0.30094   0.29403  -0.28944
  84  N 3   d 3     -0.17439  -0.07418  -0.33066  -0.00185   0.08465   0.02766
  85  N 3   d 4      0.12166  -0.17745   0.10628  -0.29990  -0.10788  -0.40017
  86  N 3   d 5     -0.22070   0.30345   0.04782  -0.00339  -0.02213   0.08828
  87  N 3   f 1     -0.00219  -0.00026   0.00468   0.00716   0.00729  -0.00074
  88  N 3   f 2      0.00280   0.00239  -0.00214   0.01078   0.00011   0.00030
  89  N 3   f 3     -0.00251  -0.00426  -0.00216   0.00560  -0.00868   0.00333
  90  N 3   f 4     -0.00321  -0.00255   0.00221   0.00937  -0.00082  -0.00012
  91  N 3   f 5      0.00491   0.00067   0.00185  -0.00588   0.00607   0.00676
  92  N 3   f 6      0.00320  -0.00457  -0.00080  -0.00030  -0.00304   0.01124
  93  N 3   f 7     -0.00026  -0.00282   0.00424   0.00715   0.00582   0.00460
  94  N 4   s        0.00424   0.00242   0.00422   0.00205  -0.00007  -0.00007
  95  N 4   s        0.00771   0.00441   0.00775   0.01349  -0.00002  -0.00003
  96  N 4   s        0.04150   0.02329   0.03998  -0.24883  -0.00416  -0.00390
  97  N 4   s       -0.70800  -0.40664  -0.71492   1.72024   0.02324   0.02169
  98  N 4   s        3.94856   2.27423   4.00625  -0.76661   0.03686   0.03576
  99  N 4   px       0.01122  -0.07240   0.01149   0.00344   0.03602  -0.03649
 100  N 4   py       0.06169  -0.02918  -0.02608  -0.00307  -0.01279  -0.04898
 101  N 4   pz      -0.02806  -0.02946   0.06325  -0.00392   0.05009   0.01373
 102  N 4   px       0.01137  -0.20058   0.01133  -0.28689   0.11804  -0.13164
 103  N 4   py       0.18064  -0.06665  -0.05032   0.28937  -0.03847  -0.16501
 104  N 4   pz      -0.05486  -0.06615   0.18407   0.28416   0.17684   0.05261
 105  N 4   px      -0.76260  -0.99847  -0.77831   0.56204  -0.03915   0.03749
 106  N 4   py       1.28846   0.27610   0.67183  -0.55922   0.01644   0.05976
 107  N 4   pz       0.64661   0.28193   1.29656  -0.56526  -0.04536  -0.01167
 108  N 4   d 1      0.00199   0.00142   0.00046   0.00660  -0.00552  -0.00138
 109  N 4   d 2     -0.00161   0.00041  -0.00192  -0.00653  -0.00420   0.00398
[...]
    78   -2.429704966052e-02
    79    5.194937414619e-02
    80    2.844369664287e-03
    81   -7.513497598336e-02
    82   -1.041278937905e+00
    83   -2.166971546638e-01
    84    1.000128148502e+00
    85    4.161686207114e-01
    86   -1.099600409589e+00
    87    9.656720224853e-02
    88   -3.042263709228e-01
    89    6.435969994138e-01
    90    2.360306226900e-01
    91    3.827063249020e-03
    92   -3.251482138127e-01
    93   -5.013298591836e-01
    94   -2.012067472669e-03
    95   -1.008267638343e-02
    96    2.388449515752e-01
    97   -5.969860567944e-01
    98   -1.172266983881e-01
    99    3.018686825521e-02
   100    3.985118527122e-01
   101   -2.459598177391e-01
   102   -2.599683567368e-01
   103   -2.420614654023e+00
   104    1.419179897087e+00
   105   -2.235259628977e-02
   106   -2.979176941063e-01
   107    1.654822893693e-01
   108    3.126742106932e-02
   109   -8.441449809885e-02
   110   -2.727098619484e-02
   111    4.430130660489e-02
   112    5.556555896897e-02
   113    9.617338585491e-01
   114   -1.260978665903e+00
   115   -3.963169981132e-01
   116    8.804939098096e-01
   117    1.134518386880e+00
   118   -6.605361236901e-02
   119   -7.051403640964e-01
   120    1.253286958022e-01
   121    5.970630180046e-01
   122    1.149581043232e-02
   123   -5.446437380824e-01
   124   -2.500450244737e-01
Sym=X
Ene= 6.906552
Spin=Alpha
Occup=0
     1   -1.162908742779e-02
     2   -6.236736987798e-02
     3    1.548360992178e+00
     4   -3.977168764549e+00
     5   -7.170688121011e-01
     6   -4.746098236131e-01
     7    1.049645565555e-01
     8   -4.094649368721e-01
     9    3.063860170298e+00
    10   -7.633015913407e-01
    11    2.634634450372e+00
    12    3.922298928075e-01
    13   -4.933380911736e-02
    14    3.419988367566e-01
    15   -3.676858093069e-02
    16   -1.230437887031e-01
    17    6.493424522173e-02
    18   -8.170830507975e-02
    19    4.520962441840e-02
    20   -5.519604979067e-01
    21   -2.066260672171e+00
    22    2.601004763655e-01
    23   -1.249699305378e+00
    24    1.161664900178e-02
    25   -1.708080209300e-01
    26    7.191521093926e-01
    27   -6.197792498570e-02
    28    8.609390278450e-01
    29    8.354709734050e-02
    30    3.348057976550e-01
    31    7.754063819939e-02
    32    1.434696933390e-03
    33    7.905827662994e-03
    34   -1.967587500749e-01
    35    4.937064847775e-01
    36    8.967646101692e-02
    37    1.228335455060e-01
    38   -7.681766725615e-02
    39    1.438695981674e-01
    40   -4.130201118283e-01
    41    4.944000992223e-01
    42   -5.232603243254e-01
    43   -5.652281642162e-02
    44    6.264676167110e-02
    45   -7.882154866871e-02
    46   -4.231652493779e-02
    47    1.630807727371e-02
    48    1.327731382225e-02
    49    1.298068747627e-02
    50    2.935202121897e-02
    51    2.278600673557e-01
    52    1.110698494578e-01
    53   -4.963342848751e-01
    54   -3.169427755053e-01
    55   -1.739224371400e-01
    56    5.050112435260e-02
    57   -6.584305761500e-02
    58    2.469287938927e-01
    59    1.444816885864e-01
    60   -5.935511039657e-03
    61   -3.247220776179e-03
    62   -1.542101146043e-01
    63    9.767596130364e-03
    64    5.253038481125e-02
    65   -1.306675189171e+00
    66    3.363999492248e+00
    67    6.040287753133e-01
    68   -4.228420817483e-01
    69   -1.626393698795e-01
    70   -3.881801209906e-01
    71    2.775475307839e+00
    72    1.194399172033e+00
    73    2.534901824098e+00
    74    3.520184350421e-01
    75    1.048065343379e-01
    76    3.234874651235e-01
    77    4.453478339962e-02
    78    1.340755910601e-01
    79    6.925041256456e-02
    80    8.969670521542e-02
    81    5.866106386301e-02
    82    6.341193432149e-01
    83    2.044118221187e+00
    84    3.634890896974e-01
    85    1.271173570243e+00
    86    2.351232811638e-01
    87   -1.596370977434e-01
    88    7.578311041763e-01
    89    5.686156006210e-02
    90    8.766157240362e-01
    91   -4.525646765443e-02
    92    3.945924525321e-01
    93   -1.895598590141e-02
    94    4.178741479951e-04
    95    2.067374951888e-03
    96   -4.857043988326e-02
    97    1.207574678635e-01
    98    2.357205247484e-02
    99    1.775468045952e-01
   100    3.056586957462e-02
   101    1.218916392230e-01
   102   -7.053731163764e-01
   103   -1.293867692060e-01
   104   -4.256954070704e-01
   105   -9.809340089240e-02
   106   -1.623049324305e-02
   107   -5.954372507355e-02
   108    3.245009338938e-02
   109    1.170882170279e-04
   110    1.696173843224e-02
   111   -2.316227615512e-02
   112    1.754546551882e-02
   113   -3.045135186833e-01
   114   -1.330026517204e-01
   115   -4.357036642291e-01
   116    3.067988434198e-01
   117   -3.579559264739e-01
   118    4.482547877689e-02
   119   -2.766035336401e-02
   120   -2.638612812251e-01
   121    1.313483964923e-01
   122   -3.903865950758e-03
   123    5.159956023633e-02
   124    1.984399206445e-01
Sym=X
Ene= 32.985339
Spin=Alpha
Occup=0
     1    6.966753877580e-01
     2   -8.605777637713e-01
     3    7.782293483664e-01
     4   -6.168508698768e-01
     5    1.729704481255e-01
     6   -3.986612241790e-02
     7   -3.955939948678e-02
     8   -4.018878531887e-02
     9    1.326155037997e-02
    10    7.013467016878e-03
    11    1.930908542447e-02
    12   -1.466169578802e-02
    13   -1.353243243213e-02
    14   -1.567923032002e-02
    15   -6.707878409000e-04
    16    2.260841101190e-02
    17    2.311036606730e-02
    18   -4.076617737684e-04
    19    2.360918262556e-02
    20   -3.217921083436e-03
    21   -2.864878626098e-02
    22   -2.483880499787e-02
    23   -1.950001186915e-03
    24   -2.096081269187e-02
    25   -9.228589644104e-03
    26    7.348008641662e-03
    27    6.096674509710e-03
    28    1.279467084932e-03
    29   -5.401933287084e-03
    30   -5.283871982521e-03
    31    5.759980569555e-03
    32    7.171790600903e-01
    33   -8.860036168266e-01
    34    8.114412104368e-01
    35   -6.711172944477e-01
    36    1.880015952843e-01
    37    4.111874199645e-02
    38    4.151795511279e-02
    39   -4.221707019017e-02
    40   -2.210605766807e-02
    41   -2.772290712296e-02
    42    2.898255434523e-02
    43    1.491148542187e-02
    44    1.603330658805e-02
    45   -1.637324349159e-02
    46    8.835531605805e-05
    47   -2.345380517109e-02
    48   -2.304767314332e-02
    49    7.913426897632e-05
    50    2.313366278389e-02
    51   -1.954697221246e-03
    52    2.800832771972e-02
    53    3.128199310375e-02
    54    1.560392259809e-03
    55   -2.673070036269e-02
    56   -9.291267040815e-03
    57   -6.098219893947e-03
    58   -6.660822357392e-03
    59   -5.329105733448e-04
    60   -5.448222956959e-03
    61    6.742332028304e-03
    62   -6.247556088805e-03
    63    6.736541865648e-01
    64   -8.320299635371e-01
    65    7.407457186583e-01
    66   -5.546687995161e-01
    67    1.554721702300e-01
    68    3.839424560819e-02
    69   -3.732843807279e-02
    70    3.799615256265e-02
    71   -1.833583244973e-03
    72   -4.060078574546e-03
    73    3.710291425943e-03
    74    1.397754424044e-02
    75   -1.274127645936e-02
    76    1.290640511459e-02
    77    1.215878502025e-04
    78    2.315077366300e-02
    79   -2.317569237947e-02
    80    6.827715595487e-05
    81   -2.276430269911e-02
    82    4.638857989802e-04
    83   -2.190811986902e-02
    84    1.782263176443e-02
    85   -2.238098853518e-03
    86    2.111597747177e-02
    87    8.356887548212e-03
    88   -5.579472714595e-03
    89    4.545704741415e-03
    90   -1.356760196112e-03
    91   -5.498678893508e-03
    92    6.205471904662e-03
    93    6.736773277576e-03
    94    6.953785067431e-01
    95   -8.589683991475e-01
    96    7.760471158175e-01
    97   -6.130037586698e-01
    98    1.720039518071e-01
    99   -3.976413835967e-02
   100    4.014409301398e-02
   101    3.934688933680e-02
   102    1.237677104188e-02
   103   -1.761703509193e-02
   104   -6.453580315687e-03
   105   -1.459607013086e-02
   106    1.562364502989e-02
   107    1.343006664784e-02
   108    1.373930717558e-04
   109   -2.352071326056e-02
   110    2.313456841610e-02
   111    6.302524994283e-05
   112   -2.270332271671e-02
   113    2.727309918866e-03
   114    2.123572407241e-02
   115   -2.432776874589e-02
   116    1.439849819793e-03
   117    2.780307371607e-02
   118    8.731607286686e-03
   119    4.484322693101e-03
   120   -4.672009834435e-03
   121    7.023698105292e-04
   122   -5.480440109693e-03
   123   -7.528138286292e-03
   124   -7.323722392484e-03
Sym=X
Ene= 33.221311
Spin=Alpha
Occup=0
     1   -8.157546841112e-01
     2    1.020526049911e+00
     3   -1.395602753777e+00
     4    2.272472449886e+00
     5   -9.064898380337e-01
     6    8.131571648902e-02
     7    7.967105517197e-02
     8    8.960869466516e-02
     9   -4.958839586859e-01
    10   -4.009386725058e-01
    11   -7.452752602148e-01
    12    1.009471860697e-01
    13    6.593667203592e-02
    14    1.864465965454e-01
    15    1.565331374823e-02
    16    8.637750608032e-03
    17    5.171401446470e-05
    18    4.926515672575e-03
    19   -2.244957927136e-02
    20    9.177872736440e-02
    21    2.543932735273e-01
    22    2.051644997520e-01
    23    2.569261854262e-02
    24    6.774049864737e-02
    25    2.417708628956e-02
    26   -4.035953849513e-02
    27   -3.279983219394e-02
    28   -9.132072300799e-03
    29   -3.576059986095e-03
    30   -7.415224055771e-03
    31    2.074419393078e-03
    32   -5.157030429249e-01
    33    6.451803971060e-01
    34   -8.834658547435e-01
    35    1.438077631629e+00
    36   -5.695489931161e-01
    37   -4.674045935689e-02
    38   -5.005973690834e-02
    39    6.217844361057e-02
    40    1.740406840851e-01
    41    2.675685581922e-01
    42   -5.968805268966e-01
    43   -1.347158371498e-02
    44   -4.612258628510e-02
    45    1.595988653889e-01
    46    1.935017156258e-02
    47   -3.619998720093e-03
    48   -1.179796555397e-02
    49   -4.078724570762e-03
    50   -2.475139770572e-02
    51    1.201174627024e-01
    52   -1.527405954654e-01
    53   -2.032044919692e-01
    54   -2.563428358705e-02
    55   -2.415836058768e-02
    56    1.600562252858e-02
    57    3.462545226560e-02
    58    4.317950007155e-02
    59    9.916426700366e-03
    60   -1.757739371623e-03
    61    1.334618509029e-02
    62   -1.857513670389e-02
    63    8.758289358434e-01
    64   -1.095600511789e+00
    65    1.488305395787e+00
    66   -2.402700776112e+00
    67    9.573597145522e-01
    68    8.719699492824e-02
    69   -8.443804078652e-02
    70    9.550644046922e-02
    71   -5.168306392434e-01
    72    4.287231542821e-01
    73   -7.684343837514e-01
    74    1.055408828280e-01
    75   -7.480177280697e-02
    76    1.915937813506e-01
    77   -1.526694751125e-02
    78   -6.206142979238e-03
    79   -9.032751716641e-04
    80   -3.800237194530e-03
    81   -2.325589681750e-02
    82   -9.179467766947e-02
    83   -2.570116456474e-01
    84    2.127432949188e-01
    85   -2.311768765741e-02
    86    7.606507411719e-02
    87    2.429076536759e-02
    88   -3.923198643480e-02
    89    3.324627500601e-02
    90   -7.743266023447e-03
    91    1.559293411866e-03
    92   -5.001687724273e-03
    93   -1.051362691045e-03
    94    5.006099238558e-01
    95   -6.262288513617e-01
    96    8.472960433533e-01
    97   -1.355577932946e+00
    98    5.321539295295e-01
    99   -4.533805181912e-02
   100    4.817530384577e-02
   101    5.951305889357e-02
   102    1.548820578789e-01
   103   -2.334247636569e-01
   104   -5.769033504306e-01
   105   -1.060931880770e-02
   106    3.757250141570e-02
   107    1.568145139982e-01
   108   -1.993311118636e-02
   109    4.293118318511e-03
   110   -1.084989704247e-02
   111    3.536173963985e-03
   112   -2.621241980777e-02
   113   -1.199817702759e-01
   114    1.522680455441e-01
   115   -1.927879947755e-01
   116    2.251456388789e-02
   117   -3.435102349028e-02
   118    1.601978096983e-02
   119    3.537095169324e-02
   120   -4.146878445429e-02
   121    8.358462816126e-03
   122    1.210000315016e-03
   123    1.437995056031e-02
   124    1.899941787734e-02
Sym=X
Ene= 33.226758
Spin=Alpha
Occup=0
     1    3.190589164970e-01
     2   -3.992197630614e-01
     3    5.436160587926e-01
     4   -8.764067765686e-01
     5    3.519553157423e-01
     6   -4.202188839195e-02
     7   -2.885814221102e-02
     8   -2.714479661266e-02
     9    4.841698720516e-01
    10    6.927659803775e-02
    11    7.315237028063e-02
    12   -1.423717009904e-01
    13    4.504502023876e-03
    14    2.334236768182e-04
    15    9.886984446960e-03
    16   -1.007876838470e-02
    17    2.613155366338e-02
    18   -1.920609282832e-02
    19   -9.697576524452e-03
    20    6.427302050842e-02
    21   -1.396565882502e-01
    22    8.002661251645e-02
    23   -1.142291816949e-01
    24   -1.413096419972e-01
    25   -5.370497559948e-03
    26    5.880113589208e-03
    27   -3.015340906661e-02
    28    4.301321410890e-02
    29    7.747306401089e-04
    30   -9.484018154933e-03
    31    3.257511428190e-02
    32   -6.559460739423e-01
    33    8.207664658749e-01
    34   -1.116359323657e+00
    35    1.791706015881e+00
    36   -7.115206986234e-01
    37   -7.458974562140e-02
    38   -6.093695608036e-02
    39    6.673361298856e-02
    40    6.430530144666e-01
    41    2.326412155126e-01
    42   -4.063170499356e-01
    43   -1.689501732643e-01
    44   -2.271917925219e-02
    45    8.445015378585e-02
    46   -1.823469859343e-03
    47   -1.245256328481e-02
    48    2.351273027139e-02
    49    1.879697266436e-02
    50   -2.490603952237e-03
    51   -1.102763185114e-02
    52   -2.420294493426e-01
    53   -2.232558604662e-02
    54    1.121717194519e-01
    55    1.498067175862e-01
    56    1.629077907119e-02
    57    2.544014046098e-02
    58   -1.177059942644e-02
    59   -4.327741079069e-02
    60   -2.083779731804e-03
    61   -4.281501984677e-03
    62    2.671109683385e-02
    63   -6.566469210868e-01
    64    8.216132595784e-01
    65   -1.120192716729e+00
    66    1.813048003087e+00
    67   -7.348947133591e-01
    68   -7.477594561066e-02
    69    6.606437117939e-02
    70   -6.037411795688e-02
    71    6.541146342976e-01
    72   -4.023437455440e-01
    73    2.382662486694e-01
    74   -1.730339657373e-01
    75    8.624540979072e-02
    76   -2.979651872459e-02
    77   -1.504604839375e-02
    78   -1.888849556470e-03
    79    2.349237539416e-02
    80    1.111943311716e-02
    81   -1.263798796411e-02
    82   -9.311378531605e-02
    83    1.524284000397e-01
    84   -1.911183458536e-02
    85    6.858656621404e-02
    86   -2.406146120620e-01
    87   -1.420030447976e-02
    88   -2.851862068260e-03
    89    2.481345290922e-02
    90    2.565997247809e-02
    91   -1.144958079917e-03
    92   -2.580035027058e-02
    93   -3.909438855328e-02
    94    9.929904204966e-01
    95   -1.242481372866e+00
    96    1.692239652439e+00
    97   -2.727740233282e+00
    98    1.094285297323e+00
    99   -1.073037339220e-01
   100    9.937883240957e-02
   101    9.862330676619e-02
   102    8.129687461256e-01
   103   -5.703619291999e-01
   104   -5.669262180188e-01
   105   -1.995847768109e-01
   106    1.141950865836e-01
   107    1.137946346695e-01
   108    6.160802408040e-03
   109    5.128717453648e-04
   110    2.082542654138e-02
   111   -1.117847387897e-02
   112    4.678903687147e-04
   113    4.059322690791e-02
   114    2.515490254429e-01
   115   -1.214782648132e-01
   116   -6.609926504370e-02
   117    2.524154133717e-01
   118    2.423949597414e-02
   119    1.617441962072e-02
   120    6.393920632155e-03
   121   -2.534928266898e-02
   122    2.446658744103e-03
   123   -2.103023021530e-02
   124   -3.426589003152e-02
Sym=X
Ene= 33.232245
Spin=Alpha
Occup=0
     1   -8.328336565505e-01
     2    1.042278148307e+00
     3   -1.413902509914e+00
     4    2.256416179833e+00
     5   -9.106214923280e-01
     6    8.399720468388e-02
     7    9.302691886091e-02
     8    7.923500290987e-02
     9   -4.768621324948e-01
    10   -7.366249245660e-01
    11   -3.824442488215e-01
    12    9.842560387316e-02
    13    1.914025734944e-01
    14    6.689418440046e-02
    15   -1.108722758294e-02
    16   -2.363757723466e-02
    17   -1.722409730955e-03
    18   -1.192941443509e-02
    19    6.191504464611e-03
    20   -7.269342654092e-02
    21    6.340919374210e-02
    22    1.979396612170e-01
    23   -7.325569631748e-02
    24    2.497785295650e-01
    25    1.906448730189e-02
    26    1.643093056457e-02
    27   -4.643110947046e-03
    28    2.626197476701e-02
    29   -5.097753800531e-04
    30    3.906205221342e-02
    31   -2.344065046178e-02
    32    8.576456203039e-01
    33   -1.073400567561e+00
    34    1.465142740938e+00
    35   -2.357246810057e+00
    36    9.525067303040e-01
    37    8.629559371321e-02
    38    9.528244622023e-02
    39   -8.407451540274e-02
    40   -4.967689311251e-01
    41   -7.544450813311e-01
    42    4.370115776039e-01
    43    1.010204762642e-01
    44    1.934407871371e-01
    45   -7.991106249534e-02
    46    1.009316739469e-02
    47   -2.226916859631e-02
    48   -1.599164847469e-04
    49    1.172367218762e-02
    50   -5.609369012759e-03
    51    6.172774527799e-02
    52    7.993837214096e-02
    53    2.153824971000e-01
    54    7.200874912399e-02
    55   -2.499033602998e-01
    56   -2.041022330801e-02
    57    1.444791109553e-02
    58   -8.084766664850e-03
    59   -2.663428142272e-02
    60    2.711722750820e-03
    61    3.844886441644e-02
    62   -2.306532588025e-02
    63   -5.424608653914e-01
    64    6.788626995350e-01
    65   -9.202967860799e-01
    66    1.469991593197e+00
    67   -5.972914324581e-01
    68   -5.002970177956e-02
    69    6.331649321723e-02
    70   -5.313176447455e-02
    71    1.736076038797e-01
    72   -5.977185654602e-01
    73    2.697937003048e-01
    74   -1.746982912825e-02
    75    1.680564986588e-01
    76   -5.131332554487e-02
    77   -6.061833702809e-03
    78   -2.601956534082e-02
    79   -1.132950228273e-02
    80   -1.952730496973e-02
    81   -2.949210744577e-03
    82   -3.632623573548e-02
    83   -2.130712971530e-02
    84   -2.036312794685e-01
    85   -1.159048473993e-01
    86   -1.527976456434e-01
    87   -1.275164524876e-02
    88   -1.939570396471e-02
    89   -1.774600084645e-02
    90   -4.349602033854e-02
    91   -8.362846730967e-04
    92   -2.973196554082e-02
    93   -6.533340703265e-03
    94    4.754309615178e-01
    95   -5.950355196315e-01
    96    8.155841986049e-01
    97   -1.323907148450e+00
    98    5.426379010444e-01
    99   -4.339487596909e-02
   100    5.798365167510e-02
   101    4.560236902428e-02
   102    1.519434543102e-01
   103   -5.768234812735e-01
   104   -2.211792194950e-01
   105   -1.320844585651e-02
   106    1.637532796673e-01
   107    3.795646288755e-02
   108    7.512389107650e-03
   109   -2.529209042162e-02
   110   -1.154642036398e-02
   111    1.929560017462e-02
   112    5.219041166587e-03
   113    4.695520437947e-02
   114   -3.613823041835e-02
   115   -1.890229377166e-01
   116    1.176014096286e-01
   117    1.506489715944e-01
   118    1.170287009696e-02
   119   -2.285263115024e-02
   120   -1.433499434805e-02
   121    4.461814823742e-02
   122    1.177267275751e-03
   123   -3.047936127138e-02
   124   -6.775871034740e-03
[5D7F]

======= END OF MOLDEN-FORMATTED INPUT FILE =======


        *************************************************************
        *                                                           *
        *  Thank you very much for using Q-Chem.  Have a nice day.  *
        *                                                           *
        *************************************************************


0 sent ACK to 0 
now end server 0 ... 
