You are running Q-Chem version: 4.4.1

#
# job setting
#
local host:  konkov-work
current dir: /home/vladimir/git/molden2qmc/test/N4/QCHEM/RHF/SVP
input file:  N4.in
output file: 
nprocs     : 1
nthreads   : 1
#
# qchem installation setting
#
QC:          /opt/qchem
QCAUX:       /opt/qchem/qcaux
QCPROG:      /opt/qchem/exe/qcprog.exe
QCPROG_S:    /opt/qchem/exe/qcprog.exe_s
PARALLEL:    FALSE
QCMPI:       
#
# qchem directory setting
#
qcrun:       qchem30456
QCSCRATCH:   /tmp
QCLOCALSCR:  
QCTMPDIR:    /tmp
QCFILEPREF:  /tmp/qchem30456
QCSAVEDIR:   
workdirs:    /tmp/qchem30456
workdir0:    /tmp/qchem30456
partmpdirs =  
#
# parallel setting
#
QCRSH:           ssh
QCMPI:           mpich
QCMPIRUN:        /opt/qchem/bin/mpi/mpirun_qchem
QCMACHINEFILE:   /opt/qchem/bin/mpi/machines


#
# env setting
#
exported envs:   QC QCAUX QCSCRATCH QCRUNNAME QCFILEPREF QCPROG QCPROG_S GUIFILE

Running Job 1 of 1 N4.in
qchem N4.in_30456.0 /tmp/qchem30456/ 1
/opt/qchem/exe/qcprog.exe_s N4.in_30456.0 /tmp/qchem30456/
Check license passed

                  Welcome to Q-Chem
     A Quantum Leap Into The Future Of Chemistry


 Q-Chem 4.4, Q-Chem, Inc., Pleasanton, CA (2016)

 Y. Shao,  Z. Gan,  E. Epifanovsky,  A. T. B. Gilbert,  M. Wormit,  
 J. Kussmann,  A. W. Lange,  A. Behn,  J. Deng,  X. Feng,  D. Ghosh,  
 M. Goldey,  P. R. Horn,  L. D. Jacobson,  I. Kaliman,  F.Rob,  
 R. Z. Khaliullin,  T. Kus,  A. Landau,  J. Liu,  E. I. Proynov,  Y. M. Rhee,  
 R. M. Richard,  M. A. Rohrdanz,  R. P. Steele,  E. J. Sundstrom,  
 H. L. Woodcock III,  P. M. Zimmerman,  D. Zuev,  B. Albrecht,  E. Alguire,  
 B. Austin,  S. A. Baeppler,  G. J. O. Beran,  Y. A. Bernard,  E. Berquist,  
 K. Brandhorst,  K. B. Bravaya,  S. T. Brown,  D. Casanova,  C.-M. Chang,  
 Y. Chen,  S. H. Chien,  K. D. Closser,  M. P. Coons,  D. L. Crittenden,  
 S. Dasgupta,  M. Diedenhofen,  R. A. DiStasio Jr.,  H. Do,  A. D. Dutoi,  
 R. G. Edgar,  P.-T. Fang,  S. Fatehi,  Q. Feng,  L. Fusti-Molnar,  
 A. Ghysels,  A. Golubeva-Zadorozhnaya,  J. Gomes,  A. Gunina,  
 M. W. D. Hanson-Heine,  P. H. P. Harbach,  A. W. Hauser,  E. G. Hohenstein,  
 Z. C. Holden,  K. Hui,  T.-C. Jagau,  H. Ji,  B. Kaduk,  K. Khistyaev,  
 Jaehoon Kim,  Jihan Kim,  R. A. King,  P. Klunzinger,  D. Kosenkov,  
 T. Kowalczyk,  C. M. Krauter,  A. Kunitsa,  K. U. Lao,  A. Laurent,  
 K. V. Lawler,  D. Lefrancois,  S. Lehtola,  S. V. Levchenko,  C. Y. Lin,  
 Y.-S. Lin,  F. Liu,  E. Livshits,  R. C. Lochan,  A. Luenser,  P. Manohar,  
 S. F. Manzer,  S.-P. Mao,  Y. Mao,  N. Mardirossian,  A. V. Marenich,  
 L. A. Martinez-Martinez,  S. A. Maurer,  N. J. Mayhall,  J.-M. Mewes,  
 A. F. Morrison,  K. Nanda,  C. M. Oana,  R. Olivares-Amaya,  D. P. O'Neill,  
 J. A. Parkhill,  T. M. Perrine,  R. Peverati,  P. A. Pieniazek,  F. Plasser,  
 A. Prociuk,  D. R. Rehn,  E. Rosta,  N. J. Russ,  N. Sergueev,  
 S. M. Sharada,  S. Sharma,  D. W. Small,  A. Sodt,  T. Stauch,  T. Stein,  
 D. Stuck,  Y.-C. Su,  A. J. W. Thom,  T. Tsuchimochi,  L. Vogt,  O. Vydrov,  
 T. Wang,  M. A. Watson,  J. Wenzel,  A. White,  C. F. Williams,  
 V. Vanovschi,  S. Yeganeh,  S. R. Yost,  Z.-Q. You,  I. Y. Zhang,  X. Zhang,  
 Y. Zhao,  B. R. Brooks,  G. K. L. Chan,  D. M. Chipman,  C. J. Cramer,  
 W. A. Goddard III,  M. S. Gordon,  W. J. Hehre,  A. Klamt,  
 H. F. Schaefer III,  M. W. Schmidt,  C. D. Sherrill,  D. G. Truhlar,  
 A. Warshel,  X. Xu,  A. Aspuru-Guzik,  R. Baer,  A. T. Bell,  N. A. Besley,  
 J.-D. Chai,  A. Dreuw,  B. D. Dunietz,  T. R. Furlani,  S. R. Gwaltney,  
 C.-P. Hsu,  Y. Jung,  J. Kong,  D. S. Lambrecht,  W. Liang,  C. Ochsenfeld,  
 V. A. Rassolov,  L. V. Slipchenko,  J. E. Subotnik,  T. Van Voorhis,  
 J. M. Herbert,  A. I. Krylov,  P. M. W. Gill,  M. Head-Gordon

 Contributors to earlier versions of Q-Chem not listed above: 
 R. D. Adamson,  J. Baker,  E. F. C. Byrd,  A. K. Chakraborty,  C.-L. Cheng,  
 H. Dachsel,  R. J. Doerksen,  G. Hawkins,  A. Heyden,  S. Hirata,  
 G. Kedziora,  F. J. Keil,  C. Kelley,  P. P. Korambath,  W. Kurlancheek,  
 A. M. Lee,  M. S. Lee,  D. Liotard,  I. Lotan,  P. E. Maslen,  N. Nair,  
 D. Neuhauser,  R. Olson,  B. Peters,  J. Ritchie,  N. E. Schultz,  
 N. Shenvi,  A. C. Simmonett,  K. S. Thanthiriwatte,  Q. Wu,  W. Zhang

 Please cite Q-Chem as follows:
 Y. Shao et al., Mol. Phys. 113, 184-215 (2015)
 DOI: 10.1080/00268976.2014.952696

 Q-Chem 4.4.1 for Intel X86 Linux

 Parts of Q-Chem use Armadillo 5.200.1 (Boston Tea Smuggler).
 http://arma.sourceforge.net/

 Q-Chem begins on Thu Nov  3 14:30:39 2016  

Host: 
0

     Scratch files written to /tmp/qchem30456//
 Oct2916 21813_ 22044  22042 5911   
Processing $rem in /opt/qchem/config/preferences.
 MEM_TOTAL  2000 

Checking the input file for inconsistencies... 	...done.

--------------------------------------------------------------
User input:
--------------------------------------------------------------
$comment0
$end

$rem
symmetry              off
basis                 def2-TZVP
method                HF
scf_convergence       8
basis_lin_dep_thresh 12
molden_format         true
PRINT_ORBITALS        true
$end

$molecule
0 1
N       0.5200      0.5300      0.5100
N      -0.5200     -0.5200      0.5200
N      -0.5200      0.5200     -0.5200
N       0.5200     -0.5200     -0.5200
$end
--------------------------------------------------------------
 ----------------------------------------------------------------
             Standard Nuclear Orientation (Angstroms)
    I     Atom           X                Y                Z
 ----------------------------------------------------------------
    1      N      -0.6425116454     0.0000000000    -0.6312616617
    2      N       0.7356992061     0.4245782221    -0.3080462814
    3      N      -0.3073581092     0.4245782221     0.7288873892
    4      N       0.2141705485    -0.8491564442     0.2104205539
 ----------------------------------------------------------------
 Molecular Point Group                 C1    NOp =  1
 Largest Abelian Subgroup              C1    NOp =  1
 Nuclear Repulsion Energy =   105.7779404621 hartrees
 There are       14 alpha and       14 beta electrons
 Requested basis set is def2-TZVP
 There are 44 shells and 124 basis functions

 Total QAlloc Memory Limit   2000 MB
 Mega-Array Size        61 MB
 MEM_STATIC part        62 MB

                       Distance Matrix (Angstroms)
             N (  1)   N (  2)   N (  3)
   N (  2)  1.477904
   N (  3)  1.463762  1.470782
   N (  4)  1.470850  1.470782  1.470782
 
 A cutoff of  1.0D-11 yielded    984 shell pairs
 There are      7944 function pairs (     10770 Cartesian)
 
 -------------------------------------------------------
 OpenMP Integral Computing Module                       
 Release: version 1.0, May 2013, Q-Chem Inc. Pittsburgh 
 -------------------------------------------------------
 Integral Job Info:
 Integral job number is                      11
 Integral operator is                         1
 short-range coefficients                     0
 long-range coefficients              100000000
 Omega coefficients                           0
 if combine SR and LR in K                    0
 Integral screening is                        0
 Integral computing path is                   2
 max size of driver memory is            800000
 size of driver memory is                776718
 size of scratch memory is              4283136
 max col of scratch BK array              10000
 max len of scratch array in speh3          662
 max len of scratch index in speh4           32
 max int batch size is                      520
 min int batch size is                       52
 fixed nKL is                                52
 max L of basis functions is                  3
 order of int derivative is                   0
 number of shells is                         44
 number of basis is                         144
 number of cartesian basis is               144
 number of contracted shell pairs           984
 number of primitive shell pairs           2748
 maxK2 (contraction) of shell pair           36
 max number of K2 of shell pair               1
 max number of CS2 of shell pair             96
 max number of PS2 of shell pair            288
 mem total for path MDJ                   52640
 -------------------------------------------------------
 Smallest overlap matrix eigenvalue = 1.43E-03

 Scale SEOQF with 1.000000e+00/1.000000e+00/1.000000e+00

 Standard Electronic Orientation quadrupole field applied
 Nucleus-field energy     =     0.0000000001 hartrees
 Guess from superposition of atomic densities
 Warning:  Energy on first SCF cycle will be non-variational
 A restricted Hartree-Fock SCF calculation will be
 performed using Pulay DIIS extrapolation
 SCF converges when DIIS error is below 1.0E-08
 ---------------------------------------
  Cycle       Energy         DIIS Error
 ---------------------------------------
    1      -3.7224784780      6.54E-01
    2    -178.7634880498      1.45E-01
    3    -201.3193483945      7.52E-02
    4    -203.6034417623      7.94E-02
    5    -217.1443490893      1.48E-02
    6    -217.4506902150      9.73E-03
    7    -217.5885822287      1.98E-03
    8    -217.5974402521      9.43E-04
    9    -217.5988296157      4.44E-04
   10    -217.5992939591      1.26E-04
   11    -217.5993289269      5.44E-05
   12    -217.5993364380      2.54E-05
   13    -217.5993396760      7.93E-06
   14    -217.5993401734      3.11E-06
   15    -217.5993402602      1.14E-06
   16    -217.5993402737      2.67E-07
   17    -217.5993402740      7.10E-08
   18    -217.5993402740      2.02E-08
   19    -217.5993402739      4.58E-09 Convergence criterion met
 ---------------------------------------
 SCF time:  CPU 15.98 s  wall 15.99 s
 SCF   energy in the final basis set = -217.5993402739
 Total energy in the final basis set = -217.5993402739
 
 --------------------------------------------------------------
 
                    Orbital Energies (a.u.)
 --------------------------------------------------------------
 
 Alpha MOs
 -- Occupied --
-15.751 -15.750 -15.750 -15.750  -1.653  -1.044  -1.041  -1.038
 -0.686  -0.570  -0.569  -0.568  -0.534  -0.529
 -- Virtual --
  0.189   0.191   0.193   0.212   0.214   0.216   0.359   0.468
  0.469   0.470   0.478   0.479   0.538   0.542   0.544   0.546
  0.627   0.627   0.627   0.746   0.749   0.752   1.043   1.048
  1.053   1.370   1.446   1.450   1.628   1.632   1.635   1.705
  1.707   1.710   1.779   1.783   1.785   1.788   1.790   1.952
  1.953   1.953   2.149   2.348   2.350   2.352   2.481   2.483
  2.484   2.557   2.557   2.996   3.171   3.178   3.184   3.388
  3.482   3.482   3.483   3.755   3.759   3.764   3.891   3.957
  3.959   4.207   4.213   4.221   4.347   4.356   4.365   4.829
  4.833   4.837   4.871   4.872   4.875   4.877   4.879   4.883
  4.966   4.967   4.968   5.038   5.039   5.040   5.402   5.407
  5.412   5.507   5.507   5.727   5.732   5.738   5.867   6.094
  6.096   6.098   6.147   6.152   6.852   6.867   6.871   6.888
  6.893   6.907  32.985  33.221  33.227  33.232
 --------------------------------------------------------------
 

                        RESTRICTED (RHF) MOLECULAR ORBITAL COEFFICIENTS
                         1         2         3         4         5         6
 eigenvalues:        -15.751   -15.750   -15.750   -15.750    -1.653    -1.044
   1  N 1   s        0.22625  -0.12135   0.36750  -0.02961  -0.04575   0.05624
   2  N 1   s        0.31743  -0.17023   0.51555  -0.04153  -0.10560   0.13190
   3  N 1   s        0.00988  -0.00627   0.01913  -0.00157   0.14906  -0.19425
   4  N 1   s       -0.00290   0.00516  -0.01580   0.00130   0.17896  -0.31192
   5  N 1   s        0.00061  -0.00040   0.00129  -0.00013   0.01832  -0.09645
   6  N 1   px       0.00141  -0.00085   0.00244  -0.00016   0.05962   0.06963
   7  N 1   py       0.00000   0.00006   0.00002   0.00006   0.00001  -0.01894
   8  N 1   pz       0.00141  -0.00076   0.00245  -0.00024   0.06009  -0.06128
   9  N 1   px      -0.00057   0.00094  -0.00640   0.00153   0.05106   0.03526
  10  N 1   py       0.00001   0.00140   0.00058   0.00151   0.00000  -0.01583
  11  N 1   pz      -0.00049   0.00310  -0.00593  -0.00053   0.05118  -0.07539
  12  N 1   px       0.00020   0.00006  -0.00007  -0.00002   0.00327   0.00808
  13  N 1   py       0.00000  -0.00004  -0.00001  -0.00003   0.00000  -0.00275
  14  N 1   pz       0.00019   0.00000  -0.00009   0.00002   0.00327  -0.01132
  15  N 1   d 1      0.00000   0.00005   0.00002   0.00010  -0.00005  -0.00018
  16  N 1   d 2      0.00000   0.00010   0.00004   0.00005   0.00005  -0.00253
  17  N 1   d 3      0.00007   0.00009   0.00010  -0.00008   0.00205  -0.00805
  18  N 1   d 4      0.00024  -0.00010   0.00025  -0.00004   0.00685   0.00074
  19  N 1   d 5      0.00012  -0.00007   0.00013   0.00007   0.00338   0.00472
  20  N 1   d 1      0.00000   0.00038   0.00022   0.00089  -0.00007   0.00020
  21  N 1   d 2      0.00001   0.00084   0.00029   0.00043   0.00008  -0.00483
  22  N 1   d 3     -0.00004   0.00116  -0.00042  -0.00058   0.00452  -0.01715
  23  N 1   d 4     -0.00022   0.00061  -0.00235   0.00001   0.01565  -0.00915
  24  N 1   d 5     -0.00013   0.00012  -0.00116   0.00079   0.00782   0.00293
  25  N 1   f 1     -0.00003   0.00006  -0.00004   0.00017   0.00118  -0.00045
  26  N 1   f 2      0.00003   0.00014   0.00013   0.00016  -0.00121   0.00010
  27  N 1   f 3     -0.00002   0.00016  -0.00001   0.00001   0.00102  -0.00157
  28  N 1   f 4      0.00001   0.00018   0.00010  -0.00007  -0.00054  -0.00244
  29  N 1   f 5     -0.00002   0.00016  -0.00013  -0.00015   0.00206  -0.00259
  30  N 1   f 6     -0.00002   0.00001  -0.00017   0.00009   0.00215   0.00066
  31  N 1   f 7     -0.00001   0.00000  -0.00006   0.00014   0.00087   0.00101
  32  N 2   s        0.21572  -0.07095  -0.12677   0.36635  -0.04544  -0.06019
  33  N 2   s        0.30266  -0.09953  -0.17784   0.51393  -0.10488  -0.14117
  34  N 2   s        0.00931  -0.00365  -0.00656   0.01898   0.14817   0.20796
  35  N 2   s       -0.00243   0.00292   0.00526  -0.01549   0.17758   0.33383
  36  N 2   s        0.00055  -0.00025  -0.00047   0.00127   0.01842   0.10342
  37  N 2   px      -0.00153   0.00052   0.00092  -0.00281  -0.06823   0.05577
  38  N 2   py      -0.00089   0.00037   0.00060  -0.00159  -0.03956  -0.06029
  39  N 2   pz       0.00065  -0.00017  -0.00046   0.00117   0.02920   0.02937
  40  N 2   px       0.00039  -0.00161  -0.00345   0.00648  -0.05817   0.01815
  41  N 2   py       0.00026   0.00079  -0.00047   0.00461  -0.03374  -0.06784
  42  N 2   pz      -0.00015   0.00193  -0.00040  -0.00318   0.02479   0.03731
  43  N 2   px      -0.00022   0.00000   0.00001   0.00010  -0.00380   0.00545
  44  N 2   py      -0.00013  -0.00005  -0.00003   0.00003  -0.00217  -0.01057
  45  N 2   pz       0.00009  -0.00003   0.00004  -0.00003   0.00161   0.00561
  46  N 2   d 1      0.00018  -0.00010  -0.00007   0.00018   0.00519   0.00154
  47  N 2   d 2     -0.00007   0.00005   0.00009  -0.00006  -0.00222  -0.00372
  48  N 2   d 3     -0.00008   0.00009   0.00000  -0.00009  -0.00254   0.00099
  49  N 2   d 4     -0.00013  -0.00008   0.00013  -0.00014  -0.00388  -0.00091
  50  N 2   d 5      0.00010   0.00004   0.00008   0.00016   0.00296  -0.00784
  51  N 2   d 1     -0.00012  -0.00022   0.00061  -0.00180   0.01180   0.01101
  52  N 2   d 2      0.00006   0.00015   0.00026   0.00096  -0.00501  -0.01033
  53  N 2   d 3      0.00006   0.00047  -0.00050   0.00089  -0.00579  -0.00292
  54  N 2   d 4      0.00007  -0.00115   0.00024   0.00133  -0.00872  -0.00811
  55  N 2   d 5     -0.00005   0.00071   0.00132  -0.00054   0.00675  -0.00900
  56  N 2   f 1      0.00002   0.00000  -0.00019   0.00012  -0.00222   0.00049
  57  N 2   f 2     -0.00001   0.00001  -0.00009  -0.00016   0.00152   0.00171
  58  N 2   f 3     -0.00003  -0.00004   0.00005  -0.00010   0.00160   0.00075
  59  N 2   f 4      0.00002  -0.00005   0.00007   0.00016  -0.00185  -0.00138
  60  N 2   f 5      0.00002  -0.00018   0.00012   0.00001  -0.00032  -0.00122
  61  N 2   f 6      0.00002   0.00023   0.00000   0.00001   0.00008  -0.00138
  62  N 2   f 7      0.00001  -0.00014  -0.00020  -0.00006  -0.00060   0.00237
  63  N 3   s        0.23297   0.37630  -0.02512  -0.07305  -0.04606   0.03317
  64  N 3   s        0.32685   0.52790  -0.03524  -0.10248  -0.10631   0.07781
  65  N 3   s        0.01025   0.01964  -0.00129  -0.00384   0.14993  -0.11450
  66  N 3   s       -0.00321  -0.01639   0.00110   0.00327   0.18039  -0.18424
  67  N 3   s        0.00064   0.00133  -0.00006  -0.00025   0.01821  -0.05674
  68  N 3   px       0.00070   0.00121  -0.00015  -0.00019   0.02862   0.11341
  69  N 3   py      -0.00097  -0.00166   0.00014   0.00039  -0.04025   0.00506
  70  N 3   pz      -0.00168  -0.00290   0.00014   0.00054  -0.06940   0.03985
  71  N 3   px      -0.00035  -0.00295  -0.00155   0.00165   0.02460   0.08901
  72  N 3   py       0.00042   0.00466   0.00035   0.00088  -0.03443   0.01367
  73  N 3   pz       0.00076   0.00719  -0.00160  -0.00205  -0.05940   0.04971
  74  N 3   px       0.00010  -0.00004   0.00005  -0.00001   0.00155   0.01605
  75  N 3   py      -0.00013   0.00005  -0.00002  -0.00005  -0.00218   0.00159
  76  N 3   pz      -0.00023   0.00010   0.00001  -0.00002  -0.00370   0.00732
  77  N 3   d 1     -0.00008  -0.00007   0.00007   0.00006  -0.00219  -0.00392
  78  N 3   d 2      0.00019   0.00019   0.00000  -0.00010   0.00532  -0.00254
  79  N 3   d 3      0.00014   0.00017   0.00011   0.00002   0.00394  -0.00616
  80  N 3   d 4     -0.00013  -0.00016   0.00011  -0.00006  -0.00373  -0.00910
  81  N 3   d 5     -0.00003  -0.00001   0.00002   0.00011  -0.00073   0.00294
  82  N 3   d 1      0.00009   0.00087   0.00044   0.00026  -0.00507  -0.00434
  83  N 3   d 2     -0.00020  -0.00192   0.00026  -0.00015   0.01219  -0.00932
  84  N 3   d 3     -0.00015  -0.00122   0.00106   0.00063   0.00903  -0.01441
  85  N 3   d 4      0.00017   0.00119   0.00079  -0.00100  -0.00867  -0.01294
  86  N 3   d 5      0.00002   0.00043   0.00014   0.00083  -0.00167   0.00538
  87  N 3   f 1     -0.00003  -0.00006   0.00000  -0.00004   0.00097  -0.00109
  88  N 3   f 2     -0.00002  -0.00013  -0.00012  -0.00002   0.00149   0.00174
  89  N 3   f 3      0.00004   0.00019  -0.00016  -0.00003  -0.00266   0.00239
  90  N 3   f 4      0.00000   0.00000  -0.00023  -0.00005  -0.00027   0.00268
  91  N 3   f 5     -0.00001  -0.00007  -0.00011   0.00018   0.00109   0.00217
  92  N 3   f 6      0.00003  -0.00002   0.00003  -0.00023  -0.00063  -0.00167
  93  N 3   f 7      0.00003   0.00012   0.00006   0.00012  -0.00141   0.00014
  94  N 4   s        0.22313  -0.20126  -0.22385  -0.24788  -0.04575  -0.02970
  95  N 4   s        0.31305  -0.28234  -0.31403  -0.34774  -0.10559  -0.06965
  96  N 4   s        0.00972  -0.01043  -0.01162  -0.01293   0.14904   0.10247
  97  N 4   s       -0.00277   0.00850   0.00953   0.01075   0.17896   0.16522
  98  N 4   s        0.00059  -0.00072  -0.00079  -0.00085   0.01832   0.05087
  99  N 4   px      -0.00047   0.00043   0.00044   0.00061  -0.02022   0.11848
 100  N 4   py       0.00185  -0.00177  -0.00201  -0.00219   0.07979   0.02317
 101  N 4   pz      -0.00046   0.00051   0.00046   0.00052  -0.01967  -0.01157
 102  N 4   px       0.00011  -0.00146  -0.00264   0.00009  -0.01721   0.09592
 103  N 4   py      -0.00065   0.00476   0.00438   0.00583   0.06816   0.03653
 104  N 4   pz       0.00020   0.00068  -0.00213  -0.00198  -0.01687  -0.01398
 105  N 4   px      -0.00006   0.00000   0.00002  -0.00006  -0.00114   0.01708
 106  N 4   py       0.00026   0.00004   0.00007   0.00008   0.00435   0.00499
 107  N 4   pz      -0.00007  -0.00005   0.00001  -0.00001  -0.00104  -0.00210
 108  N 4   d 1     -0.00011   0.00002  -0.00001   0.00018  -0.00309   0.01075
 109  N 4   d 2     -0.00010   0.00018   0.00003   0.00002  -0.00300  -0.00232
 110  N 4   d 3     -0.00011   0.00004   0.00011   0.00007  -0.00334  -0.00055
 111  N 4   d 4      0.00003  -0.00006   0.00006  -0.00005   0.00076  -0.00382
 112  N 4   d 5     -0.00020   0.00009   0.00019   0.00012  -0.00568  -0.00415
 113  N 4   d 1      0.00006  -0.00093  -0.00128   0.00019  -0.00702   0.01639
 114  N 4   d 2      0.00012   0.00047  -0.00095  -0.00117  -0.00689  -0.00684
 115  N 4   d 3      0.00010  -0.00077  -0.00041  -0.00086  -0.00759  -0.00421
 116  N 4   d 4     -0.00002  -0.00029   0.00084  -0.00010   0.00174  -0.00663
 117  N 4   d 5      0.00017  -0.00131  -0.00067  -0.00148  -0.01300  -0.01162
 118  N 4   f 1      0.00002  -0.00012   0.00005  -0.00015  -0.00161  -0.00247
 119  N 4   f 2      0.00001  -0.00011   0.00019  -0.00007  -0.00013  -0.00215
 120  N 4   f 3      0.00001  -0.00014   0.00002  -0.00008  -0.00132  -0.00048
 121  N 4   f 4     -0.00004  -0.00008   0.00013   0.00017   0.00212   0.00099
 122  N 4   f 5      0.00003   0.00003  -0.00004  -0.00005  -0.00084  -0.00085
 123  N 4   f 6      0.00000  -0.00011   0.00002   0.00015   0.00049   0.00142
 124  N 4   f 7     -0.00002   0.00019   0.00019  -0.00009   0.00200  -0.00324
                         7         8         9        10        11        12
 eigenvalues:         -1.041    -1.038    -0.686    -0.570    -0.569    -0.568
   1  N 1   s       -0.01594   0.05608   0.02251   0.02376  -0.02528   0.02323
   2  N 1   s       -0.03740   0.13154   0.05371   0.05669  -0.06033   0.05545
   3  N 1   s        0.05504  -0.19351  -0.09344  -0.09822   0.10458  -0.09618
   4  N 1   s        0.08882  -0.31360  -0.13000  -0.13513   0.14343  -0.13146
   5  N 1   s        0.02773  -0.09890  -0.10589  -0.09093   0.09666  -0.08868
   6  N 1   px      -0.00130  -0.05864   0.14094   0.00775  -0.10537   0.18910
   7  N 1   py      -0.12835  -0.01751   0.00000  -0.07596  -0.14818  -0.08306
   8  N 1   pz      -0.00182   0.07222   0.13863   0.19516  -0.10803   0.00464
   9  N 1   px       0.00556  -0.07423   0.12462   0.00284  -0.09727   0.17888
  10  N 1   py      -0.10861  -0.01501   0.00000  -0.07350  -0.14328  -0.08030
  11  N 1   pz       0.00549   0.03665   0.12216   0.18370  -0.09937   0.00014
  12  N 1   px       0.00044  -0.01134   0.04712   0.01596  -0.05534   0.08741
  13  N 1   py      -0.01907  -0.00266   0.00000  -0.02988  -0.05837  -0.03276
  14  N 1   pz       0.00047   0.00816   0.04614   0.08941  -0.05610   0.01441
  15  N 1   d 1     -0.00910  -0.00233   0.00002  -0.00238  -0.00607  -0.00449
  16  N 1   d 2     -0.00905  -0.00012  -0.00001  -0.00407  -0.00645  -0.00250
  17  N 1   d 3     -0.00107   0.00805   0.00288   0.00769   0.00011  -0.00605
  18  N 1   d 4      0.00092   0.00099   0.01025   0.00113  -0.00225   0.00090
  19  N 1   d 5     -0.00176  -0.00442   0.00518  -0.00255   0.00038   0.00507
  20  N 1   d 1     -0.01603  -0.00463   0.00003  -0.00512  -0.01537  -0.01209
  21  N 1   d 2     -0.01591   0.00018  -0.00003  -0.01121  -0.01618  -0.00547
  22  N 1   d 3     -0.00129   0.01108   0.00697   0.02010   0.00046  -0.01442
  23  N 1   d 4      0.00508  -0.00897   0.02520   0.00424  -0.00834   0.00386
  24  N 1   d 5     -0.00230  -0.01332   0.01277  -0.00500   0.00090   0.01441
  25  N 1   f 1     -0.00230  -0.00152  -0.00014  -0.00014  -0.00277  -0.00170
  26  N 1   f 2     -0.00422   0.00009   0.00013  -0.00250  -0.00350  -0.00257
  27  N 1   f 3     -0.00173  -0.00014  -0.00010  -0.00151  -0.00236   0.00028
  28  N 1   f 4     -0.00084   0.00232  -0.00131   0.00342   0.00090  -0.00234
  29  N 1   f 5      0.00044   0.00200   0.00451   0.00248  -0.00023  -0.00309
  30  N 1   f 6     -0.00010  -0.00136   0.00484  -0.00118   0.00036   0.00119
  31  N 1   f 7     -0.00080  -0.00149   0.00200  -0.00108   0.00089   0.00189
  32  N 2   s        0.04286   0.03355   0.02251  -0.04041  -0.00787   0.00785
  33  N 2   s        0.10053   0.07870   0.05373  -0.09643  -0.01879   0.01873
  34  N 2   s       -0.14812  -0.11587  -0.09339   0.16716   0.03254  -0.03253
  35  N 2   s       -0.23820  -0.18736  -0.13003   0.22912   0.04453  -0.04428
  36  N 2   s       -0.07474  -0.05931  -0.10636   0.15450   0.03031  -0.02986
  37  N 2   px       0.03287   0.03776  -0.15983   0.17413   0.13864  -0.04623
  38  N 2   py      -0.09812   0.00500  -0.09224   0.11743  -0.10598  -0.11813
  39  N 2   pz      -0.03984   0.11217   0.06697  -0.12736   0.05136  -0.13638
  40  N 2   px       0.04866   0.04883  -0.14103   0.15955   0.13245  -0.04322
  41  N 2   py      -0.07090   0.01390  -0.08135   0.10826  -0.10336  -0.11329
  42  N 2   pz      -0.04259   0.08807   0.05892  -0.11909   0.05041  -0.13259
  43  N 2   px       0.00705   0.00751  -0.05305   0.09338   0.05907  -0.02330
  44  N 2   py      -0.01333   0.00182  -0.03068   0.06034  -0.03870  -0.04936
  45  N 2   pz      -0.00689   0.01607   0.02217  -0.06046   0.01828  -0.05187
  46  N 2   d 1      0.00552  -0.00243   0.00779  -0.00166   0.00399   0.00559
  47  N 2   d 2     -0.00284  -0.00379  -0.00329   0.00231  -0.00412   0.00369
  48  N 2   d 3     -0.00366   0.00558  -0.00380  -0.00090   0.00407  -0.00552
  49  N 2   d 4      0.00472  -0.00883  -0.00568   0.00290  -0.00032   0.00606
  50  N 2   d 5     -0.00725  -0.00366   0.00450  -0.00010  -0.00820  -0.00267
  51  N 2   d 1      0.00318  -0.00930   0.01914  -0.00665   0.01033   0.01496
  52  N 2   d 2     -0.00292  -0.00414  -0.00804   0.00703  -0.00991   0.01051
  53  N 2   d 3     -0.00385   0.01195  -0.00934  -0.00137   0.01179  -0.01417
  54  N 2   d 4      0.01292  -0.01247  -0.01388   0.00870  -0.00005   0.01417
  55  N 2   d 5     -0.01626  -0.00965   0.01103  -0.00188  -0.02047  -0.00684
  56  N 2   f 1      0.00028   0.00199  -0.00457  -0.00028  -0.00044  -0.00161
  57  N 2   f 2      0.00050   0.00163   0.00356  -0.00068   0.00232  -0.00228
  58  N 2   f 3      0.00034  -0.00167   0.00071   0.00008  -0.00104   0.00330
  59  N 2   f 4      0.00040  -0.00114  -0.00285   0.00040   0.00049   0.00131
  60  N 2   f 5      0.00183  -0.00301   0.00156   0.00178  -0.00259   0.00305
  61  N 2   f 6     -0.00246   0.00170   0.00215   0.00062  -0.00188  -0.00147
  62  N 2   f 7      0.00336   0.00108   0.00006   0.00003   0.00478   0.00289
  63  N 3   s        0.04265  -0.06015   0.02249   0.00784  -0.00660  -0.04033
  64  N 3   s        0.10003  -0.14110   0.05368   0.01869  -0.01575  -0.09623
  65  N 3   s       -0.14709   0.20751  -0.09346  -0.03235   0.02733   0.16682
  66  N 3   s       -0.23803   0.33642  -0.12992  -0.04470   0.03758   0.22889
  67  N 3   s       -0.07396   0.10588  -0.10535  -0.03009   0.02503   0.15409
  68  N 3   px      -0.03977   0.02884   0.06808  -0.14159   0.05668  -0.12194
  69  N 3   py      -0.09902  -0.05999  -0.09412  -0.11788  -0.11798   0.11965
  70  N 3   pz       0.03344   0.05888  -0.16164  -0.04889   0.14285   0.17636
  71  N 3   px      -0.04249   0.03686   0.06030  -0.13767   0.05541  -0.11451
  72  N 3   py      -0.07149  -0.06834  -0.08316  -0.11293  -0.11507   0.11068
  73  N 3   pz       0.04960   0.01955  -0.14276  -0.04530   0.13656   0.16158
  74  N 3   px      -0.00671   0.00553   0.02289  -0.05349   0.02050  -0.05888
  75  N 3   py      -0.01351  -0.01075  -0.03150  -0.04925  -0.04424   0.06223
  76  N 3   pz       0.00703   0.00563  -0.05421  -0.02395   0.06079   0.09504
  77  N 3   d 1     -0.00285  -0.00371  -0.00332   0.00379  -0.00426   0.00231
  78  N 3   d 2      0.00554   0.00146   0.00793   0.00567   0.00403  -0.00157
  79  N 3   d 3     -0.00453  -0.00737   0.00584   0.00073  -0.00967   0.00027
  80  N 3   d 4      0.00469  -0.00082  -0.00571   0.00642  -0.00057   0.00255
  81  N 3   d 5     -0.00689  -0.00308  -0.00112  -0.00616  -0.00107  -0.00073
  82  N 3   d 1     -0.00295  -0.01030  -0.00819   0.01069  -0.01029   0.00711
  83  N 3   d 2      0.00318   0.01117   0.01950   0.01497   0.01066  -0.00655
  84  N 3   d 3     -0.01240  -0.00633   0.01440   0.00165  -0.02491  -0.00115
  85  N 3   d 4      0.01288  -0.00792  -0.01411   0.01503  -0.00063   0.00812
  86  N 3   d 5     -0.01158  -0.00715  -0.00275  -0.01580  -0.00131  -0.00169
  87  N 3   f 1      0.00040   0.00082  -0.00045   0.00275  -0.00096  -0.00001
  88  N 3   f 2      0.00050   0.00163   0.00359  -0.00240   0.00234  -0.00062
  89  N 3   f 3      0.00023   0.00028  -0.00465  -0.00241   0.00002  -0.00038
  90  N 3   f 4      0.00160   0.00260  -0.00087   0.00029   0.00553  -0.00097
  91  N 3   f 5     -0.00211  -0.00035   0.00342  -0.00206  -0.00168   0.00037
  92  N 3   f 6      0.00357   0.00052   0.00131   0.00420   0.00109   0.00141
  93  N 3   f 7     -0.00121  -0.00192  -0.00095   0.00010  -0.00088   0.00074
  94  N 4   s       -0.06956  -0.02900   0.02251   0.00865   0.03976   0.00941
  95  N 4   s       -0.16316  -0.06803   0.05371   0.02064   0.09486   0.02245
  96  N 4   s        0.24016   0.10018  -0.09343  -0.03570  -0.16444  -0.03901
  97  N 4   s        0.38742   0.16166  -0.12999  -0.04919  -0.22552  -0.05324
  98  N 4   s        0.12098   0.05120  -0.10587  -0.03341  -0.15195  -0.03560
  99  N 4   px      -0.04297  -0.01145  -0.04702  -0.18470  -0.02452  -0.00481
 100  N 4   py      -0.03142   0.02219   0.18636   0.00646   0.24243   0.01181
 101  N 4   pz      -0.04192   0.12032  -0.04618  -0.00183  -0.01206  -0.19287
 102  N 4   px      -0.04637  -0.01387  -0.04147  -0.17799  -0.02121  -0.00408
 103  N 4   py       0.01316   0.03539   0.16451   0.00397   0.22427   0.00909
 104  N 4   pz      -0.04534   0.09779  -0.04081  -0.00119  -0.00909  -0.18598
 105  N 4   px      -0.00737  -0.00216  -0.01559  -0.07369  -0.01716  -0.00374
 106  N 4   py      -0.00068   0.00512   0.06218   0.00858   0.12421   0.01170
 107  N 4   pz      -0.00724   0.01755  -0.01551  -0.00216  -0.01164  -0.07827
 108  N 4   d 1     -0.00309  -0.00233  -0.00461  -0.00945   0.00061   0.00028
 109  N 4   d 2     -0.00299   0.01081  -0.00450   0.00030   0.00124  -0.00963
 110  N 4   d 3      0.00214  -0.00322  -0.00495  -0.00152  -0.00213   0.00511
 111  N 4   d 4      0.00311  -0.00388   0.00114   0.00109  -0.00025   0.00137
 112  N 4   d 5      0.00382  -0.00253  -0.00853   0.00515  -0.00361   0.00124
 113  N 4   d 1     -0.01125  -0.00682  -0.01129  -0.02400   0.00020  -0.00022
 114  N 4   d 2     -0.01096   0.01667  -0.01111  -0.00004   0.00190  -0.02470
 115  N 4   d 3     -0.00263  -0.00782  -0.01212  -0.00503  -0.00693   0.01361
 116  N 4   d 4      0.00738  -0.00671   0.00280   0.00172   0.00021   0.00247
 117  N 4   d 5     -0.00428  -0.00927  -0.02100   0.01308  -0.01174   0.00198
 118  N 4   f 1      0.00112  -0.00104  -0.00376   0.00452  -0.00093   0.00065
 119  N 4   f 2      0.00128  -0.00216   0.00151   0.00077  -0.00093   0.00092
 120  N 4   f 3      0.00079  -0.00224  -0.00298  -0.00048  -0.00078   0.00443
 121  N 4   f 4      0.00176  -0.00213   0.00212   0.00046  -0.00010   0.00230
 122  N 4   f 5     -0.00086   0.00054   0.00088   0.00163  -0.00093  -0.00090
 123  N 4   f 6      0.00017  -0.00265   0.00271  -0.00071  -0.00134   0.00364
 124  N 4   f 7      0.00151   0.00165   0.00341   0.00394  -0.00061  -0.00009
                        13        14        15        16        17        18
 eigenvalues:         -0.534    -0.529     0.189     0.191     0.193     0.212
   1  N 1   s       -0.00055   0.00047  -0.00388  -0.00071   0.00384  -0.03097
   2  N 1   s       -0.00132   0.00114  -0.00914  -0.00167   0.00905  -0.07279
   3  N 1   s        0.00241  -0.00210   0.00994   0.00180  -0.00971   0.07477
   4  N 1   s        0.00280  -0.00240   0.03411   0.00626  -0.03420   0.27896
   5  N 1   s        0.00122  -0.00093   0.26033   0.04820  -0.26483   2.34792
   6  N 1   px      -0.11431   0.11715   0.17470   0.02997  -0.15461   0.10654
   7  N 1   py       0.16036   0.16354   0.20906  -0.01278   0.22529  -0.00823
   8  N 1   pz       0.11157  -0.11515  -0.14835  -0.02518   0.12873   0.08129
   9  N 1   px      -0.11250   0.11578   0.18120   0.03126  -0.16211   0.15791
  10  N 1   py       0.15752   0.16132   0.20879  -0.01296   0.22628  -0.00933
  11  N 1   pz       0.10939  -0.11337  -0.14129  -0.02396   0.12236   0.14775
  12  N 1   px      -0.05673   0.05912   0.50794   0.08624  -0.44225   1.28702
  13  N 1   py       0.07900   0.08198   0.51936  -0.02203   0.53308  -0.01466
  14  N 1   pz       0.05454  -0.05733  -0.29663  -0.04716   0.22781   0.57700
  15  N 1   d 1      0.00057   0.00854  -0.00708  -0.00034  -0.00208  -0.00410
  16  N 1   d 2      0.00856   0.00050  -0.00164   0.00052  -0.00619   0.00421
  17  N 1   d 3      0.00803  -0.00312   0.00422   0.00083  -0.00580   0.00897
  18  N 1   d 4     -0.00282  -0.00286   0.00129   0.00000   0.00216  -0.00445
  19  N 1   d 5      0.00106   0.00744  -0.00625  -0.00071   0.00036  -0.00833
  20  N 1   d 1      0.00320   0.02303  -0.00209  -0.00082   0.00740   0.00276
  21  N 1   d 2      0.02267   0.00340   0.00845   0.00096  -0.00177  -0.00306
  22  N 1   d 3      0.02175  -0.01025  -0.00532  -0.00036  -0.00207   0.00239
  23  N 1   d 4     -0.00700  -0.00685   0.01006   0.00130  -0.00306   0.05742
  24  N 1   d 5      0.00122   0.01979   0.00074   0.00088  -0.01064   0.03742
  25  N 1   f 1     -0.00124   0.00341  -0.00051  -0.00015   0.00090   0.00027
  26  N 1   f 2      0.00177   0.00176   0.00028  -0.00007   0.00065  -0.00109
  27  N 1   f 3      0.00379  -0.00214   0.00135   0.00017  -0.00069   0.00171
  28  N 1   f 4      0.00401   0.00110  -0.00118  -0.00122  -0.00051   0.00003
  29  N 1   f 5      0.00034  -0.00245   0.00019   0.00132   0.00063   0.00263
  30  N 1   f 6      0.00003   0.00126   0.00035  -0.00244  -0.00095   0.00191
  31  N 1   f 7      0.00172   0.00324  -0.00068   0.00238  -0.00083   0.00056
  32  N 2   s        0.00034   0.00027   0.00331   0.00053  -0.00091   0.03818
  33  N 2   s        0.00080   0.00065   0.00780   0.00125  -0.00213   0.08969
  34  N 2   s       -0.00140  -0.00122  -0.00845  -0.00128   0.00237  -0.09160
  35  N 2   s       -0.00183  -0.00133  -0.02913  -0.00471   0.00782  -0.34726
  36  N 2   s       -0.00160  -0.00030  -0.22251  -0.03912   0.05922  -2.89697
  37  N 2   px       0.10579  -0.08490   0.15523   0.11326   0.01328   0.14146
  38  N 2   py      -0.20659  -0.01344  -0.04435  -0.24303  -0.10818   0.05865
  39  N 2   pz      -0.02540  -0.21676   0.25695  -0.07446  -0.10470  -0.06735
  40  N 2   px       0.10416  -0.08392   0.16150   0.11461   0.01200   0.22096
  41  N 2   py      -0.20294  -0.01326  -0.04048  -0.24264  -0.10910   0.11211
  42  N 2   pz      -0.02491  -0.21341   0.25315  -0.07522  -0.10299  -0.10743
  43  N 2   px       0.05195  -0.04281   0.46001   0.28780   0.00024   1.54223
  44  N 2   py      -0.10169  -0.00688  -0.06598  -0.57607  -0.28755   0.48743
  45  N 2   pz      -0.01244  -0.10836   0.61781  -0.17745  -0.29437  -0.44368
  46  N 2   d 1      0.00071   0.00277   0.00233  -0.00186  -0.00193   0.00379
  47  N 2   d 2     -0.00675  -0.00104   0.00181   0.00403   0.00170   0.00256
  48  N 2   d 3     -0.00580  -0.00200  -0.00218   0.00353   0.00303  -0.00085
  49  N 2   d 4      0.00237   0.01013   0.00762  -0.00290  -0.00474  -0.00105
  50  N 2   d 5     -0.00812   0.00561   0.00648   0.00582   0.00086   0.01092
  51  N 2   d 1      0.00367   0.00771  -0.00266   0.00609   0.00483  -0.05210
  52  N 2   d 2     -0.01747  -0.00081  -0.00551   0.00492   0.00425   0.01799
  53  N 2   d 3     -0.01434  -0.00726   0.01092   0.00482  -0.00132   0.02722
  54  N 2   d 4      0.00670   0.02734   0.00475   0.00140   0.00035   0.03746
  55  N 2   d 5     -0.02286   0.01496  -0.00154  -0.00413  -0.00134  -0.04232
  56  N 2   f 1      0.00279  -0.00268  -0.00025  -0.00120   0.00058   0.00213
  57  N 2   f 2      0.00216   0.00002   0.00101  -0.00137   0.00165  -0.00230
  58  N 2   f 3      0.00036  -0.00140  -0.00085  -0.00041   0.00194  -0.00178
  59  N 2   f 4     -0.00254   0.00236   0.00134  -0.00019   0.00215   0.00285
  60  N 2   f 5      0.00262   0.00231  -0.00058  -0.00071  -0.00010   0.00013
  61  N 2   f 6     -0.00312  -0.00373  -0.00081  -0.00008   0.00106  -0.00020
  62  N 2   f 7      0.00175  -0.00218  -0.00035   0.00124   0.00016   0.00015
  63  N 3   s       -0.00030  -0.00031   0.00061   0.00055  -0.00299  -0.01684
  64  N 3   s       -0.00073  -0.00075   0.00144   0.00130  -0.00704  -0.03958
  65  N 3   s        0.00136   0.00131  -0.00153  -0.00131   0.00749   0.04070
  66  N 3   s        0.00153   0.00171  -0.00559  -0.00496   0.02667   0.15101
  67  N 3   s        0.00043   0.00154  -0.04217  -0.04180   0.20994   1.28370
  68  N 3   px      -0.21065  -0.02763  -0.11637   0.06554   0.25372   0.09660
  69  N 3   py      -0.01569  -0.19713  -0.08312   0.25553  -0.05359  -0.01942
  70  N 3   pz      -0.07741   0.10574   0.00342  -0.11679   0.11845  -0.03660
  71  N 3   px      -0.20730  -0.02730  -0.11817   0.06503   0.25810   0.10185
  72  N 3   py      -0.01542  -0.19444  -0.08280   0.25693  -0.05746  -0.04353
  73  N 3   pz      -0.07588   0.10407   0.00449  -0.11573   0.11280  -0.07641
  74  N 3   px      -0.10406  -0.01391  -0.23678   0.16173   0.61473   0.97667
  75  N 3   py      -0.00755  -0.09884  -0.17840   0.63357  -0.17073  -0.18420
  76  N 3   pz      -0.03786   0.05312   0.03461  -0.26930   0.20626  -0.36880
  77  N 3   d 1     -0.00124  -0.00664   0.00100  -0.00449   0.00164   0.00125
  78  N 3   d 2      0.00286   0.00030  -0.00088   0.00209   0.00109   0.00319
  79  N 3   d 3      0.00558  -0.00364   0.00018  -0.00329   0.00462   0.00668
  80  N 3   d 4      0.01023   0.00225  -0.00215   0.00314   0.00608   0.01717
  81  N 3   d 5      0.00121  -0.00901   0.00162  -0.00656   0.00135  -0.00311
  82  N 3   d 1     -0.00142  -0.01712   0.00418  -0.00468  -0.00831  -0.01584
  83  N 3   d 2      0.00776   0.00276   0.00092  -0.00866   0.00587   0.01749
  84  N 3   d 3      0.01531  -0.01150  -0.00242   0.00534   0.00059   0.00808
  85  N 3   d 4      0.02738   0.00660  -0.00080  -0.00089  -0.00057  -0.03484
  86  N 3   d 5      0.00160  -0.02388  -0.00115  -0.00204   0.00673   0.00441
  87  N 3   f 1     -0.00216   0.00104   0.00202   0.00062  -0.00042  -0.00029
  88  N 3   f 2      0.00012   0.00207   0.00156   0.00122   0.00166   0.00084
  89  N 3   f 3     -0.00221   0.00271   0.00014   0.00113  -0.00022  -0.00192
  90  N 3   f 4     -0.00289  -0.00056  -0.00025  -0.00149   0.00018  -0.00096
  91  N 3   f 5     -0.00446  -0.00074  -0.00086  -0.00009  -0.00100  -0.00067
  92  N 3   f 6      0.00038   0.00310   0.00026  -0.00011  -0.00080  -0.00001
  93  N 3   f 7     -0.00050  -0.00390   0.00222   0.00003   0.00054  -0.00117
  94  N 4   s        0.00060  -0.00050  -0.00005  -0.00038   0.00005   0.00946
  95  N 4   s        0.00143  -0.00121  -0.00012  -0.00089   0.00011   0.02222
  96  N 4   s       -0.00253   0.00214   0.00010   0.00079  -0.00009  -0.02258
  97  N 4   s       -0.00322   0.00269   0.00046   0.00341  -0.00042  -0.08630
  98  N 4   s       -0.00246   0.00211   0.00449   0.03271  -0.00421  -0.73193
  99  N 4   px       0.22433  -0.00542  -0.17163  -0.20354  -0.13157   0.07943
 100  N 4   py       0.05881   0.04993  -0.06636   0.00709  -0.07823  -0.02241
 101  N 4   pz      -0.00779   0.22111  -0.09539   0.22177  -0.18022   0.00339
 102  N 4   px       0.22081  -0.00536  -0.17291  -0.20450  -0.13146   0.07404
 103  N 4   py       0.05773   0.04928  -0.06658   0.00834  -0.07825  -0.05006
 104  N 4   pz      -0.00763   0.21766  -0.09589   0.22160  -0.17959   0.01070
 105  N 4   px       0.11046  -0.00265  -0.36683  -0.48995  -0.34296   0.86639
 106  N 4   py       0.02929   0.02476  -0.14161   0.03330  -0.20914  -0.21277
 107  N 4   pz      -0.00391   0.11081  -0.21117   0.54194  -0.48345   0.02154
 108  N 4   d 1      0.00810  -0.00334   0.00245   0.00640   0.00224  -0.01583
 109  N 4   d 2     -0.00336   0.00772   0.00100  -0.00694   0.00452   0.00460
 110  N 4   d 3     -0.00418   0.00147  -0.00114  -0.00123  -0.00166   0.00363
 111  N 4   d 4     -0.00742  -0.00733  -0.00355   0.00060  -0.00663   0.00914
 112  N 4   d 5     -0.00114  -0.00414  -0.00164   0.00121  -0.00354   0.00281
 113  N 4   d 1      0.02314  -0.00845  -0.00275  -0.00164  -0.00456   0.02850
 114  N 4   d 2     -0.00854   0.02229  -0.00291   0.00165  -0.00545   0.00315
 115  N 4   d 3     -0.01015   0.00210  -0.00067  -0.01020   0.00333   0.00709
 116  N 4   d 4     -0.01893  -0.01881  -0.00567   0.00031  -0.00486  -0.00960
 117  N 4   d 5     -0.00469  -0.01091   0.00248   0.00466   0.00293   0.00653
 118  N 4   f 1      0.00036  -0.00176   0.00140   0.00085  -0.00025   0.00024
 119  N 4   f 2     -0.00398  -0.00391  -0.00044   0.00009  -0.00097   0.00114
 120  N 4   f 3     -0.00190   0.00105  -0.00064  -0.00114   0.00133   0.00114
 121  N 4   f 4      0.00154  -0.00309  -0.00105   0.00087   0.00118  -0.00101
 122  N 4   f 5      0.00129   0.00104  -0.00136   0.00099   0.00215  -0.00003
 123  N 4   f 6      0.00258  -0.00054   0.00175  -0.00064  -0.00045  -0.00116
 124  N 4   f 7     -0.00287   0.00282   0.00080  -0.00031   0.00038   0.00030
                        19
 eigenvalues:          0.214
   1  N 1   s        0.00439
   2  N 1   s        0.01032
   3  N 1   s       -0.01039
   4  N 1   s       -0.04034
   5  N 1   s       -0.34127
   6  N 1   px      -0.01893
   7  N 1   py       0.05830
   8  N 1   pz      -0.00784
   9  N 1   px      -0.02896
  10  N 1   py       0.04541
  11  N 1   pz      -0.01528
  12  N 1   px      -0.12941
  13  N 1   py       0.77525
  14  N 1   pz      -0.14159
  15  N 1   d 1     -0.01254
  16  N 1   d 2     -0.01182
  17  N 1   d 3     -0.00312
  18  N 1   d 4      0.00503
  19  N 1   d 5     -0.00639
  20  N 1   d 1      0.01731
  21  N 1   d 2      0.01631
  22  N 1   d 3     -0.00053
  23  N 1   d 4     -0.01102
  24  N 1   d 5      0.00005
  25  N 1   f 1     -0.00066
  26  N 1   f 2     -0.00064
  27  N 1   f 3     -0.00044
  28  N 1   f 4     -0.00092
  29  N 1   f 5      0.00024
  30  N 1   f 6     -0.00062
  31  N 1   f 7     -0.00125
  32  N 2   s        0.02217
  33  N 2   s        0.05205
  34  N 2   s       -0.05261
  35  N 2   s       -0.20338
  36  N 2   s       -1.70159
  37  N 2   px       0.04856
  38  N 2   py       0.09300
  39  N 2   pz      -0.03703
  40  N 2   px       0.10354
  41  N 2   py       0.11189
  42  N 2   pz      -0.05901
  43  N 2   px       0.43914
  44  N 2   py       1.05766
  45  N 2   pz      -0.30308
  46  N 2   d 1      0.00613
  47  N 2   d 2     -0.00916
  48  N 2   d 3     -0.00702
  49  N 2   d 4      0.00092
  50  N 2   d 5     -0.01170
  51  N 2   d 1     -0.03978
  52  N 2   d 2      0.02176
  53  N 2   d 3      0.01944
  54  N 2   d 4      0.01895
  55  N 2   d 5     -0.00097
  56  N 2   f 1      0.00245
  57  N 2   f 2     -0.00055
  58  N 2   f 3     -0.00085
  59  N 2   f 4      0.00060
  60  N 2   f 5      0.00082
  61  N 2   f 6     -0.00091
  62  N 2   f 7      0.00083
  63  N 3   s        0.01786
  64  N 3   s        0.04196
  65  N 3   s       -0.04252
  66  N 3   s       -0.16239
  67  N 3   s       -1.39264
  68  N 3   px      -0.01210
  69  N 3   py       0.08101
  70  N 3   pz       0.04105
  71  N 3   px      -0.03025
  72  N 3   py       0.09419
  73  N 3   pz       0.08744
  74  N 3   px      -0.16350
  75  N 3   py       0.99249
  76  N 3   pz       0.31198
  77  N 3   d 1     -0.00927
  78  N 3   d 2      0.00605
  79  N 3   d 3     -0.00661
  80  N 3   d 4      0.00273
  81  N 3   d 5     -0.01240
  82  N 3   d 1      0.01888
  83  N 3   d 2     -0.03461
  84  N 3   d 3     -0.00635
  85  N 3   d 4      0.01321
  86  N 3   d 5      0.01681
  87  N 3   f 1     -0.00023
  88  N 3   f 2     -0.00030
  89  N 3   f 3      0.00223
  90  N 3   f 4      0.00010
  91  N 3   f 5     -0.00092
  92  N 3   f 6      0.00113
  93  N 3   f 7     -0.00040
  94  N 4   s       -0.04443
  95  N 4   s       -0.10436
  96  N 4   s        0.10562
  97  N 4   s        0.40592
  98  N 4   s        3.43567
  99  N 4   px      -0.02843
 100  N 4   py       0.18446
 101  N 4   pz      -0.04214
 102  N 4   px      -0.06071
 103  N 4   py       0.29990
 104  N 4   pz      -0.07219
 105  N 4   px      -0.28740
 106  N 4   py       1.88050
 107  N 4   pz      -0.36978
 108  N 4   d 1      0.00027
 109  N 4   d 2      0.00220
 110  N 4   d 3      0.00456
 111  N 4   d 4      0.00253
 112  N 4   d 5      0.00744
 113  N 4   d 1     -0.03386
 114  N 4   d 2     -0.03513
 115  N 4   d 3     -0.04217
 116  N 4   d 4      0.00632
 117  N 4   d 5     -0.07265
 118  N 4   f 1     -0.00236
 119  N 4   f 2      0.00042
 120  N 4   f 3     -0.00182
 121  N 4   f 4      0.00289
 122  N 4   f 5     -0.00100
 123  N 4   f 6      0.00069
 124  N 4   f 7      0.00289
 
          Ground-State Mulliken Net Atomic Charges

     Atom                 Charge (a.u.)
  ----------------------------------------
      1 N                    -0.000004
      2 N                    -0.001722
      3 N                     0.001734
      4 N                    -0.000008
  ----------------------------------------
  Sum of atomic charges =     0.000000

 -----------------------------------------------------------------
                    Cartesian Multipole Moments
 -----------------------------------------------------------------
    Charge (ESU x 10^10)
                 0.0000
    Dipole Moment (Debye)
         X      -0.0076      Y       0.0000      Z       0.0077
       Tot       0.0108
    Quadrupole Moments (Debye-Ang)
        XX     -22.3691     XY      -0.0077     YY     -22.4075
        XZ       0.0000     YZ       0.0077     ZZ     -22.4454
    Octopole Moments (Debye-Ang^2)
       XXX      -0.4054    XXY      -0.7855    XYY      -0.8033
       YYY       1.5934    XXZ       1.2058    XYZ       0.7966
       YYZ      -0.7898    XZZ       1.1838    YZZ      -0.8079
       ZZZ      -0.3902
    Hexadecapole Moments (Debye-Ang^3)
      XXXX     -55.4830   XXXY      -0.4499   XXYY     -18.4116
      XYYY       0.2706   YYYY     -55.5244   XXXZ      -0.0929
      XXYZ       0.1403   XYYZ       0.1412   YYYZ       0.2945
      XXZZ     -18.7206   XYZZ       0.1424   YYZZ     -18.3230
      XZZZ      -0.0485   YZZZ      -0.3975   ZZZZ     -54.8626
 -----------------------------------------------------------------
Archival summary:
1\1\konkov-work\SP\HF\BasisUnspecified\4\vladimir\ThuNov314:30:552016ThuNov314:30:552016\0\\#,HF,BasisUnspecified,\\0,1\N\N,1,1.46376\N,1,1.47078,2,60.1608\N,3,1.47078,1,60,2,-71.0498,0\\HF=-217.59934\\@

 Total job time:  16.06s(wall), 16.04s(cpu) 
 Thu Nov  3 14:30:55 2016

======= MOLDEN-FORMATTED INPUT FILE FOLLOWS =======
[Molden Format]
[Atoms] (Angs)
  N      1    7     -0.64251165      0.00000000     -0.63126166
  N      2    7      0.73569921      0.42457822     -0.30804628
  N      3    7     -0.30735811      0.42457822      0.72888739
  N      4    7      0.21417055     -0.84915644      0.21042055
[GTO]
1    0
S    6    1.000000
   1.97308006E+04    2.18879850E-04 
   2.95789587E+03    1.69607088E-03 
   6.73221336E+02    8.79546035E-03 
   1.90682495E+02    3.53593826E-02 
   6.22954419E+01    1.10957892E-01 
   2.26541612E+01    2.49829726E-01 
S    2    1.000000
   8.97914774E+00    4.06238961E-01 
   3.68630024E+00    2.43382172E-01 
S    1    1.000000
   8.46600768E-01    1.00000000E+00 
S    1    1.000000
   3.36471338E-01    1.00000000E+00 
S    1    1.000000
   1.36476537E-01    1.00000000E+00 
P    4    1.000000
   4.92003805E+01    5.55524168E-03 
   1.13467905E+01    3.80523797E-02 
   3.42739724E+00    1.49536710E-01 
   1.17855251E+00    3.49493052E-01 
P    1    1.000000
   4.16422050E-01    1.00000000E+00 
P    1    1.000000
   1.42608260E-01    1.00000000E+00 
D    1    1.000000
   1.65400000E+00    1.00000000E+00 
D    1    1.000000
   4.69000000E-01    1.00000000E+00 
F    1    1.000000
   1.09300000E+00    1.00000000E+00 

2    0
S    6    1.000000
   1.97308006E+04    2.18879850E-04 
   2.95789587E+03    1.69607088E-03 
   6.73221336E+02    8.79546035E-03 
   1.90682495E+02    3.53593826E-02 
   6.22954419E+01    1.10957892E-01 
   2.26541612E+01    2.49829726E-01 
S    2    1.000000
   8.97914774E+00    4.06238961E-01 
   3.68630024E+00    2.43382172E-01 
S    1    1.000000
   8.46600768E-01    1.00000000E+00 
S    1    1.000000
   3.36471338E-01    1.00000000E+00 
S    1    1.000000
   1.36476537E-01    1.00000000E+00 
P    4    1.000000
   4.92003805E+01    5.55524168E-03 
   1.13467905E+01    3.80523797E-02 
   3.42739724E+00    1.49536710E-01 
   1.17855251E+00    3.49493052E-01 
P    1    1.000000
   4.16422050E-01    1.00000000E+00 
P    1    1.000000
   1.42608260E-01    1.00000000E+00 
D    1    1.000000
   1.65400000E+00    1.00000000E+00 
D    1    1.000000
   4.69000000E-01    1.00000000E+00 
F    1    1.000000
   1.09300000E+00    1.00000000E+00 

3    0
S    6    1.000000
   1.97308006E+04    2.18879850E-04 
   2.95789587E+03    1.69607088E-03 
   6.73221336E+02    8.79546035E-03 
   1.90682495E+02    3.53593826E-02 
   6.22954419E+01    1.10957892E-01 
   2.26541612E+01    2.49829726E-01 
S    2    1.000000
   8.97914774E+00    4.06238961E-01 
   3.68630024E+00    2.43382172E-01 
S    1    1.000000
   8.46600768E-01    1.00000000E+00 
S    1    1.000000
   3.36471338E-01    1.00000000E+00 
S    1    1.000000
   1.36476537E-01    1.00000000E+00 
P    4    1.000000
   4.92003805E+01    5.55524168E-03 
   1.13467905E+01    3.80523797E-02 
   3.42739724E+00    1.49536710E-01 
   1.17855251E+00    3.49493052E-01 
P    1    1.000000
   4.16422050E-01    1.00000000E+00 
P    1    1.000000
   1.42608260E-01    1.00000000E+00 
D    1    1.000000
   1.65400000E+00    1.00000000E+00 
D    1    1.000000
   4.69000000E-01    1.00000000E+00 
F    1    1.000000
   1.09300000E+00    1.00000000E+00 

4    0
S    6    1.000000
   1.97308006E+04    2.18879850E-04 
   2.95789587E+03    1.69607088E-03 
   6.73221336E+02    8.79546035E-03 
   1.90682495E+02    3.53593826E-02 
   6.22954419E+01    1.10957892E-01 
   2.26541612E+01    2.49829726E-01 
S    2    1.000000
   8.97914774E+00    4.06238961E-01 
   3.68630024E+00    2.43382172E-01 
S    1    1.000000
   8.46600768E-01    1.00000000E+00 
S    1    1.000000
   3.36471338E-01    1.00000000E+00 
S    1    1.000000
   1.36476537E-01    1.00000000E+00 
P    4    1.000000
   4.92003805E+01    5.55524168E-03 
   1.13467905E+01    3.80523797E-02 
   3.42739724E+00    1.49536710E-01 
   1.17855251E+00    3.49493052E-01 
P    1    1.000000
   4.16422050E-01    1.00000000E+00 
P    1    1.000000
   1.42608260E-01    1.00000000E+00 
D    1    1.000000
   1.65400000E+00    1.00000000E+00 
D    1    1.000000
   4.69000000E-01    1.00000000E+00 
F    1    1.000000
   1.09300000E+00    1.00000000E+00 

[MO]
Sym=X
Ene= -15.750868
Spin=Alpha
Occup=1
     1    2.262528741348e-01
     2    3.174286627354e-01
     3    9.878877111049e-03
     4   -2.899081582337e-03
     5    6.051355128542e-04
     6    1.408873134237e-03
     7    3.274141344425e-07
     8    1.408078144604e-03
     9   -5.746069159238e-04
    10    5.549520164005e-06
    11   -4.935321580817e-04
    12    1.989315803167e-04
    13   -3.013026954341e-07
    14    1.935240926781e-04
    15    7.360583065709e-05
    16    2.393678885863e-04
    17    1.949297627396e-06
    18    1.171431928678e-04
    19   -1.328163124596e-06
    20   -3.624352493211e-05
    21   -2.226430001847e-04
    22    9.141473500856e-06
    23   -1.265947161028e-04
    24   -4.467133673774e-06
    25    9.314139734744e-06
    26   -1.911494102945e-05
    27   -2.395722029127e-05
    28   -2.469551424102e-05
    29    3.170941859490e-05
    30   -1.114372081836e-05
    31   -3.179091414338e-05
    32    2.157223342928e-01
    33    3.026573252735e-01
    34    9.310892106436e-03
    35   -2.432968412832e-03
    36    5.539406564190e-04
    37   -1.529964800004e-03
    38   -8.870784332078e-04
    39    6.504053336880e-04
    40    3.933070410202e-04
    41    2.637308457132e-04
    42   -1.544045647745e-04
    43   -2.226173783130e-04
    44   -1.317863156541e-04
    45    9.366155586404e-05
    46   -8.415324684674e-05
    47   -1.312048767308e-04
    48   -7.416483909048e-05
    49    1.016725525340e-04
    50    1.750318127507e-04
    51    6.475423528829e-05
    52    7.420557190850e-05
    53    5.605749582752e-05
    54   -5.251410536685e-05
    55   -1.243003561255e-04
    56    2.431704206254e-05
    57    1.670075206948e-05
    58   -3.341795623006e-05
    59    1.598276555452e-05
    60   -1.271297488489e-05
    61    1.064431210783e-05
    62    2.100595581437e-05
    63    2.329719111889e-01
    64    3.268529796657e-01
    65    1.025115363023e-02
    66   -3.214920009906e-03
    67    6.419342733306e-04
    68    6.974523211415e-04
    69   -9.738522463282e-04
    70   -1.680843863043e-03
    71   -3.465684357421e-04
    72    4.205517768594e-04
    73    7.576315828970e-04
    74    9.644486615465e-05
    75   -1.304034309734e-04
    76   -2.285520873267e-04
    77    1.413118212634e-04
    78   -1.323728710049e-04
    79    1.898289799669e-04
    80   -2.780341199303e-05
    81   -7.843188930604e-05
    82   -1.524050159691e-04
    83    1.666437526731e-04
    84   -2.007951962363e-04
    85    1.817460102482e-05
    86    8.563396654891e-05
    87    1.678125052058e-06
    88   -1.136066580188e-05
    89    4.019507895366e-05
    90    2.729678307326e-05
    91   -1.752350019977e-05
    92    2.980998060965e-05
    93   -2.736041796609e-05
    94    2.231345394735e-01
    95    3.130540915887e-01
    96    9.716854502066e-03
    97   -2.769450773148e-03
    98    5.924794502746e-04
    99   -4.663754653102e-04
   100    1.850202402992e-03
   101   -4.590964739777e-04
   102    1.133940186440e-04
   103   -6.481876389147e-04
   104    1.996901194819e-04
   105   -6.226485132866e-05
   106    2.618663050083e-04
   107   -6.828838034843e-05
   108   -1.140845105326e-04
   109    2.665894855860e-05
   110   -1.015360066240e-04
   111   -1.972739780350e-04
   112   -1.097091716186e-04
   113    9.875977652977e-05
   114   -1.981049838945e-05
   115    1.154354552975e-04
   116    1.723883172417e-04
   117    6.154963806406e-05
   118   -4.224916562770e-05
   119    2.784108384602e-05
   120    1.196499796646e-05
   121    1.357147380547e-07
   122    1.346750460504e-05
   123   -2.056314702813e-05
   124    1.750654333808e-05
Sym=X
Ene= -15.749954
Spin=Alpha
Occup=1
     1   -1.213455621780e-01
     2   -1.702325940949e-01
     3   -6.274748974395e-03
     4    5.163700767163e-03
     5   -3.964920117966e-04
     6   -8.471835446846e-04
     7    5.624330889431e-05
     8   -7.553181382994e-04
     9    9.380834718773e-04
    10    1.395756669639e-03
    11    3.099582189113e-03
    12    5.813517732041e-05
    13   -3.639124686750e-05
    14    2.827402944823e-06
    15    8.679049204729e-05
    16   -9.905822330038e-05
    17    9.694542540287e-05
    18   -7.457422118660e-05
    19    4.864054615170e-05
    20    1.157790555130e-03
    21    6.115431741245e-04
    22    8.367609568929e-04
    23    1.218398418308e-04
    24    3.817619706602e-04
    25    1.776344711857e-04
    26    1.639504670932e-04
    27    1.582711144276e-04
    28    1.071421010041e-05
    29    1.353225107783e-04
    30    1.268511057527e-06
    31    6.017775481069e-05
    32   -7.094727145276e-02
    33   -9.953020755137e-02
    34   -3.645060473791e-03
    35    2.915833570282e-03
    36   -2.470269631061e-04
    37    5.239540040911e-04
    38    3.727192282502e-04
    39   -1.728517905180e-04
    40   -1.611188401176e-03
    41    7.947373173162e-04
    42    1.932106532019e-03
    43   -1.798875464200e-06
    44   -4.772706380787e-05
    45   -2.738575841662e-05
    46    9.254591484208e-05
    47   -7.956407728762e-05
    48    4.704606923590e-05
    49    4.248889448247e-05
    50   -1.041439308322e-04
    51    4.728278784803e-04
    52   -1.152142870123e-03
    53    1.525262966214e-04
    54    7.137654214410e-04
    55   -2.163924259741e-04
    56   -4.879314122210e-05
    57   -1.819673757700e-04
    58   -4.345681882867e-05
    59    2.251436856663e-04
    60    7.027628180191e-06
    61   -1.402377217134e-04
    62    8.931134779151e-07
    63    3.763012951533e-01
    64    5.278956279224e-01
    65    1.964322571960e-02
    66   -1.638875832205e-02
    67    1.325497405565e-03
    68    1.209114357501e-03
    69   -1.659182546890e-03
    70   -2.895313703742e-03
    71   -2.945296497700e-03
    72    4.659370795604e-03
    73    7.193480840558e-03
    74   -4.316993382887e-05
    75    4.846972647418e-05
    76    1.027125281940e-04
    77    1.666276935717e-04
    78   -1.564640633693e-04
    79    1.895331524604e-04
    80   -6.792682893551e-06
    81   -7.122548598415e-05
    82   -1.215058369233e-03
    83    1.193716294554e-03
    84   -1.920587735482e-03
    85    4.324021412030e-04
    86    8.687661786854e-04
    87   -4.410189077141e-08
    88   -6.705184475717e-05
    89    1.859632419466e-04
    90   -2.092021438420e-05
    91   -1.346725767308e-04
    92    1.199621470625e-04
    93   -6.158931445361e-05
    94   -2.012581685421e-01
    95   -2.823372278934e-01
    96   -1.042707412057e-02
    97    8.495343473689e-03
    98   -7.223971977241e-04
    99    4.335584455540e-04
   100   -1.766421286113e-03
   101    5.131447766001e-04
   102   -1.458572094158e-03
   103    4.756179929247e-03
   104    6.783941884564e-04
   105   -1.887274924228e-06
   106    3.550056415577e-05
   107   -5.045569387522e-05
   108    4.475981559948e-05
   109   -6.422510365946e-05
   110    1.826039989276e-04
   111    8.506834591424e-05
   112    1.869703128579e-05
   113   -7.671572214310e-04
   114   -2.890877970644e-04
   115    4.667368680813e-04
   116   -1.307986712757e-03
   117   -9.341988355217e-04
   118   -7.890443258347e-05
   119    2.818339525676e-05
   120   -1.376883550321e-04
   121   -1.069660095399e-04
   122   -1.146478232735e-04
   123    1.911303518202e-04
   124   -1.190992762849e-04
Sym=X
Ene= -15.749942
Spin=Alpha
Occup=1
     1    3.675000321622e-01
     2    5.155495114420e-01
     3    1.912751484623e-02
     4   -1.579978710076e-02
     5    1.294131903345e-03
     6    2.442832656522e-03
     7    2.307940509189e-05
     8    2.446138911371e-03
     9   -6.398757527835e-03
    10    5.785219731938e-04
    11   -5.928076504603e-03
    12   -7.135922561087e-05
    13   -1.454490553082e-05
    14   -8.533402383692e-05
    15    1.017011039239e-04
    16    2.501630438939e-04
    17    3.581023433025e-05
    18    1.256930613870e-04
    19    2.460342249665e-05
    20   -4.235252203012e-04
    21   -2.346561336725e-03
    22    2.890533457281e-04
    23   -1.157544328795e-03
    24    2.166614716936e-04
    25    9.714593043455e-05
    26   -1.324173550431e-04
    27   -9.693857506170e-06
    28   -1.698103275826e-04
    29    1.298914618358e-04
    30   -6.088504435398e-05
    31   -3.638657941947e-05
    32   -1.267715793988e-01
    33   -1.778419752258e-01
    34   -6.559662524673e-03
    35    5.264228346918e-03
    36   -4.731422548379e-04
    37    9.239467011676e-04
    38    5.954991512819e-04
    39   -4.628869497342e-04
    40   -3.447273186106e-03
    41   -4.651822956051e-04
    42   -3.956012439512e-04
    43    1.173540622032e-05
    44   -3.320437637257e-05
    45    3.832452510701e-05
    46    4.470438652828e-06
    47    1.278092092716e-04
    48    9.084064747503e-05
    49    7.644601524236e-05
    50   -6.692732696571e-05
    51   -5.037101346491e-04
    52    2.368485770785e-04
    53    2.635721628031e-04
    54    1.315892143620e-03
    55    6.105007434054e-04
    56    7.380194005159e-05
    57    1.215075105761e-04
    58    5.043095203843e-05
    59   -3.853986528876e-06
    60   -8.832984587470e-05
    61   -1.952725614979e-04
    62   -1.913148349675e-04
    63   -2.511657071659e-02
    64   -3.523627296102e-02
    65   -1.293419280206e-03
    66    1.097980949503e-03
    67   -5.507484841205e-05
    68   -1.489183435627e-04
    69    1.350421575813e-04
    70    1.449521280673e-04
    71   -1.551369835342e-03
    72    3.498212901025e-04
    73   -1.601547945743e-03
    74    5.116014562797e-05
    75   -2.262224470645e-05
    76    1.038108244571e-05
    77    1.057551801059e-04
    78    1.114184759528e-04
    79    2.088740828697e-06
    80    1.740580373366e-05
    81    6.537547234770e-05
    82    1.062150093909e-03
    83    7.893670178911e-04
    84    2.618586419002e-04
    85    1.428833959979e-04
    86    4.397824501503e-04
    87   -2.251187539002e-04
    88   -1.066224364552e-04
    89   -1.601689391214e-04
    90    2.791335062390e-05
    91   -1.218941331766e-04
    92    6.309703853350e-05
    93   -4.626847354660e-06
    94   -2.238497227930e-01
    95   -3.140294764214e-01
    96   -1.162287753315e-02
    97    9.534502414814e-03
    98   -7.866399731208e-04
    99    4.436771462575e-04
   100   -2.005297952822e-03
   101    4.576628852622e-04
   102   -2.642642185105e-03
   103    4.376189487936e-03
   104   -2.128003054958e-03
   105    2.143650124712e-05
   106    7.288397542526e-05
   107    5.193183894095e-06
   108    1.062127871602e-04
   109    6.057075435756e-05
   110    2.770948858492e-05
   111    1.884961542294e-04
   112   -9.613692659653e-06
   113   -4.084470405269e-04
   114    8.370790750635e-04
   115   -9.503336397818e-04
   116   -6.666793736163e-04
   117   -1.282055439050e-03
   118    1.341332436245e-04
   119   -4.370438226359e-05
   120    2.355666670922e-05
   121    2.344464489564e-05
   122    1.935847584980e-04
   123    1.920076437513e-04
   124    5.001306045896e-05
Sym=X
Ene= -15.749918
Spin=Alpha
Occup=1
     1   -2.960807414436e-02
     2   -4.153391035893e-02
     3   -1.571552807043e-03
     4    1.300632835723e-03
     5   -1.321144421945e-04
     6   -1.631389618409e-04
     7    5.798406519650e-05
     8   -2.404939735461e-04
     9    1.530052469600e-03
    10    1.511521195195e-03
    11   -5.268018076784e-04
    12   -2.160579121718e-05
    13   -3.362934795434e-05
    14    2.400683259602e-05
    15   -8.299623471821e-05
    16   -4.059133380130e-05
    17    5.333065565134e-05
    18    7.024635260643e-05
    19    1.039393231851e-04
    20   -5.834669319358e-04
    21    1.169118503031e-05
    22    4.333042359284e-04
    23    7.946775746912e-04
    24    8.922058294799e-04
    25   -6.969221567055e-05
    26   -1.465082401895e-04
    27    1.107834008095e-05
    28    8.516199757936e-05
    29    1.627545906403e-04
    30    1.397781409973e-04
    31    1.703838572946e-04
    32    3.663457780311e-01
    33    5.139323966368e-01
    34    1.898100678518e-02
    35   -1.548922117285e-02
    36    1.267019712949e-03
    37   -2.805116795599e-03
    38   -1.593430852719e-03
    39    1.171220916002e-03
    40    6.483066161409e-03
    41    4.613153164175e-03
    42   -3.181644891467e-03
    43    9.778311109091e-05
    44    3.483516435681e-05
    45   -3.236799987306e-05
    46   -9.079760637110e-05
    47   -1.364110179316e-04
    48   -5.608461346100e-05
    49    1.630615266342e-04
    50    1.848573828724e-04
    51    8.860363814144e-04
    52    1.330939168540e-03
    53    9.585860631371e-04
    54   -5.432115302728e-04
    55   -1.800399655247e-03
    56    1.632076537986e-04
    57    1.132465453912e-05
    58   -9.858589220953e-05
    59    1.234515808483e-05
    60   -1.625034740538e-04
    61   -5.568091471121e-05
    62    1.225618882201e-04
    63   -7.305289274581e-02
    64   -1.024818080701e-01
    65   -3.841106681032e-03
    66    3.267534305423e-03
    67   -2.486994782513e-04
    68   -1.946429772323e-04
    69    3.939831057778e-04
    70    5.409101818840e-04
    71    1.648518059479e-03
    72    8.767429811535e-04
    73   -2.048676761108e-03
    74   -1.438711981770e-05
    75   -5.255836207097e-05
    76   -1.502942540432e-05
    77    1.548245072324e-05
    78   -5.961161590150e-05
    79   -1.014654938856e-04
    80    1.082542758738e-04
    81    6.167484803461e-05
    82    6.333456979489e-04
    83   -1.003585312325e-03
    84   -1.497431442373e-04
    85    8.294256446573e-04
    86    2.592102422993e-04
    87   -4.911545592428e-05
    88    1.838518092305e-04
    89   -2.846214838134e-05
    90   -2.299255441340e-04
    91   -2.341169775574e-05
    92    1.200746277211e-04
    93   -4.471397181646e-05
    94   -2.478820105591e-01
    95   -3.477423452096e-01
    96   -1.292609058069e-02
    97    1.075205703673e-02
    98   -8.494312814061e-04
    99    6.112480321803e-04
   100   -2.191383768125e-03
   101    5.240063405711e-04
   102    9.105687187779e-05
   103    5.833999030520e-03
   104   -1.982273736211e-03
   105   -5.958531447772e-05
   106    7.762277519875e-05
   107   -7.707546477869e-06
   108    7.266179999597e-05
   109   -4.995147933676e-05
   110    1.959785089468e-05
   111    1.196282384828e-04
   112    1.816768756867e-04
   113   -8.620472780533e-04
   114   -9.687336156211e-05
   115   -1.171602265261e-03
   116   -1.484406867950e-03
   117    1.868058850432e-04
   118    1.662800489675e-04
   119   -4.555673216465e-05
   120   -7.794752193491e-05
   121    1.479473912256e-04
   122   -6.933828337445e-05
   123   -8.892890746266e-05
   124   -1.506949541746e-04
Sym=X
Ene= -1.653090
Spin=Alpha
Occup=1
     1   -4.575315962525e-02
     2   -1.055961820638e-01
     3    1.490582573134e-01
     4    1.789618912463e-01
     5    1.832271224930e-02
     6    5.962198958144e-02
     7    1.004345394832e-05
     8    6.008683174713e-02
     9    5.105663998696e-02
    10    3.610339904770e-06
    11    5.118182224793e-02
    12    3.265593608445e-03
    13    8.549212606478e-07
    14    3.265551476017e-03
    15    2.054882644632e-03
    16    6.852611101221e-03
    17    5.107625984954e-05
    18    3.381237342926e-03
    19   -4.770233056110e-05
    20    4.521669090849e-03
    21    1.564704757966e-02
    22    7.674296512434e-05
    23    7.819753594671e-03
    24   -7.420847553497e-05
    25   -5.413651737293e-04
    26    2.055567977100e-03
    27    1.023969491515e-03
    28    2.145364307196e-03
    29   -1.209445429000e-03
    30    8.702862047121e-04
    31    1.183927674524e-03
    32   -4.544456526679e-02
    33   -1.048848683149e-01
    34    1.481734178261e-01
    35    1.775769012987e-01
    36    1.842266749222e-02
    37   -6.823099533163e-02
    38   -3.955568170817e-02
    39    2.919567184240e-02
    40   -5.817245425069e-02
    41   -3.373645915259e-02
    42    2.479394509446e-02
    43   -3.804081677508e-03
    44   -2.169088715600e-03
    45    1.606646657017e-03
    46   -2.541107226979e-03
    47   -3.881106960618e-03
    48   -2.224702734145e-03
    49    2.961358000958e-03
    50    5.187691601290e-03
    51   -5.787805299051e-03
    52   -8.717902897662e-03
    53   -5.009757702086e-03
    54    6.752498318741e-03
    55    1.180053069210e-02
    56   -1.848993435373e-03
    57   -3.241276538174e-04
    58    1.595391197561e-03
    59    8.083470034812e-05
    60    1.518507142106e-03
    61   -5.988970881909e-04
    62   -2.222618002276e-03
    63   -4.606142223556e-02
    64   -1.063063209387e-01
    65    1.499281707081e-01
    66    1.803891361641e-01
    67    1.820736790356e-02
    68    2.862408604540e-02
    69   -4.024506741862e-02
    70   -6.940280487154e-02
    71    2.460139362019e-02
    72   -3.443462362758e-02
    73   -5.940357430718e-02
    74    1.547571932481e-03
    75   -2.183256876489e-03
    76   -3.701913057301e-03
    77    3.941912540165e-03
    78   -3.727826260514e-03
    79    5.315789601091e-03
    80   -7.250571617360e-04
    81   -2.187266569450e-03
    82    9.025550761306e-03
    83   -8.667080805199e-03
    84    1.219485346279e-02
    85   -1.666921443023e-03
    86   -5.069630154190e-03
    87   -2.708896159732e-04
    88    1.094976236114e-03
    89   -2.659643269334e-03
    90   -6.256488205933e-04
    91    1.488293539270e-03
    92   -1.413813856299e-03
    93    9.718151262038e-04
    94   -4.574899693358e-02
    95   -1.055863296578e-01
    96    1.490392048052e-01
    97    1.789649992192e-01
    98    1.831544381706e-02
    99   -2.021718898945e-02
   100    7.979176119967e-02
   101   -1.967314069173e-02
   102   -1.720710928314e-02
   103    6.816119584677e-02
   104   -1.687143455521e-02
   105   -1.136630514375e-03
   106    4.352238083188e-03
   107   -1.038666065379e-03
   108   -3.342469053929e-03
   109    7.603729710460e-04
   110   -3.000457045156e-03
   111   -5.681630499606e-03
   112   -3.087685718809e-03
   113   -7.592891840803e-03
   114    1.738216165261e-03
   115   -6.886256888013e-03
   116   -1.300292236127e-02
   117   -7.022203935093e-03
   118    2.119937690299e-03
   119   -8.445487497013e-04
   120   -1.324957319045e-03
   121    4.904494495150e-04
   122   -1.254505358830e-04
   123    1.996441432044e-03
   124   -1.607087602293e-03
Sym=X
Ene= -1.044403
Spin=Alpha
Occup=1
     1    5.623841755374e-02
     2    1.319042190505e-01
     3   -1.942491597946e-01
     4   -3.119229881626e-01
     5   -9.644884104152e-02
     6    6.963469093376e-02
     7   -1.894021024828e-02
     8   -6.127948547394e-02
     9    3.526348449858e-02
    10   -1.583441475356e-02
    11   -7.538959958539e-02
    12    8.082139357120e-03
    13   -2.753009901875e-03
    14   -1.131674098528e-02
    15   -8.046055495264e-03
    16    7.397668710485e-04
    17   -2.532673593106e-03
    18    4.723343152737e-03
    19   -1.757820909096e-04
    20   -1.715484535209e-02
    21   -9.145670641347e-03
    22   -4.829311511860e-03
    23    2.928841719643e-03
    24    1.970319283012e-04
    25   -2.437570887552e-03
    26   -2.591396028865e-03
    27   -1.571686290876e-03
    28    6.584450114261e-04
    29    9.646473165216e-05
    30    1.014002431727e-03
    31   -4.497092748352e-04
    32   -6.019131308167e-02
    33   -1.411690250845e-01
    34    2.079598685543e-01
    35    3.338278816515e-01
    36    1.034221873953e-01
    37    5.576930771254e-02
    38   -6.029023067222e-02
    39    2.937206660470e-02
    40    1.815477700473e-02
    41   -6.784116838481e-02
    42    3.731172474918e-02
    43    5.451603207999e-03
    44   -1.057237693032e-02
    45    5.611651947417e-03
    46    9.903203980722e-04
    47   -9.051722987240e-04
    48   -3.722619838471e-03
    49   -7.835066059729e-03
    50    1.541616963839e-03
    51   -2.918414561411e-03
    52   -8.107398339218e-03
    53   -1.032957664041e-02
    54   -9.002601240418e-03
    55    1.100639030904e-02
    56   -1.377595640325e-03
    57   -1.218474762042e-03
    58    7.452381504113e-04
    59   -1.380366513592e-03
    60    1.709724599811e-03
    61    2.373857239104e-03
    62    4.916817273941e-04
    63    3.317317762671e-02
    64    7.780764276993e-02
    65   -1.144991783179e-01
    66   -1.842409228324e-01
    67   -5.674091656716e-02
    68    1.134104734516e-01
    69    5.057097713902e-03
    70    3.984825918804e-02
    71    8.900693327564e-02
    72    1.366501373011e-02
    73    4.971237312031e-02
    74    1.605288407898e-02
    75    1.592040992101e-03
    76    7.315445922703e-03
    77   -6.161250871775e-03
    78   -9.096828286934e-03
    79   -2.538939342234e-03
    80    2.939696568855e-03
    81   -3.918036767014e-03
    82   -1.440862800941e-02
    83   -1.294285979624e-02
    84   -9.315331706498e-03
    85    5.383845197461e-03
    86   -4.341677306347e-03
    87    2.684220369588e-03
    88    2.173202739913e-03
    89    2.393183284357e-03
    90   -1.667949958589e-03
    91    1.736162296171e-03
    92    1.359273568114e-04
    93   -1.091103312748e-03
    94   -2.969745469568e-02
    95   -6.964990820627e-02
    96    1.024701539039e-01
    97    1.652175562761e-01
    98    5.086722763511e-02
    99    1.184805761700e-01
   100    2.317268969880e-02
   101   -1.156551468391e-02
   102    9.591536762397e-02
   103    3.653409709906e-02
   104   -1.398205926032e-02
   105    1.708114019827e-02
   106    4.986243444879e-03
   107   -2.101451517341e-03
   108   -5.531434669423e-04
   109   -3.821082931332e-03
   110   -2.317877557255e-03
   111   -4.152085496488e-03
   112    1.074863411379e-02
   113   -4.211549001532e-03
   114   -6.634883920325e-03
   115   -6.840167593421e-03
   116   -1.162439807505e-02
   117    1.638690972167e-02
   118    9.915961745641e-04
   119   -8.508614578542e-04
   120   -4.810799114607e-04
   121    1.419617007518e-03
   122   -2.147563703226e-03
   123   -3.239408543494e-03
   124   -2.466876703754e-03
Sym=X
Ene= -1.041029
Spin=Alpha
Occup=1
     1   -1.594450276141e-02
     2   -3.739854095317e-02
     3    5.504354602516e-02
     4    8.881919597741e-02
     5    2.773156833704e-02
     6   -1.301979860749e-03
     7   -1.283456084792e-01
     8   -1.817950234470e-03
     9    5.560694197720e-03
    10   -1.086118831604e-01
    11    5.485263857038e-03
    12    4.381717210511e-04
    13   -1.906738434499e-02
    14    4.731002062795e-04
    15   -1.065795511809e-03
    16    9.184721647005e-04
    17   -9.049204065612e-03
    18   -1.756878217267e-03
    19   -9.098437098466e-03
    20   -1.289312061622e-03
    21    5.083213129450e-03
    22   -1.591136295465e-02
    23   -2.295987275521e-03
    24   -1.602874074987e-02
    25   -8.407091614003e-04
    26    4.405934433573e-04
    27   -1.733125130189e-03
    28   -1.048665154125e-04
    29   -4.216953162748e-03
    30   -8.000082417168e-04
    31   -2.295322605416e-03
    32    4.286075912977e-02
    33    1.005309354467e-01
    34   -1.481161453725e-01
    35   -2.382012182896e-01
    36   -7.474224417432e-02
    37    3.287110355141e-02
    38   -9.811937730872e-02
    39   -3.984258382857e-02
    40    4.865947191468e-02
    41   -7.090195358659e-02
    42   -4.258703523682e-02
    43    7.054301060488e-03
    44   -1.332614522458e-02
    45   -6.890007483995e-03
    46   -3.664734290874e-03
    47    4.720974171474e-03
    48   -2.842354779744e-03
    49   -7.246605304359e-03
    50    5.516686896001e-03
    51   -3.849328528437e-03
    52    1.292016791466e-02
    53   -2.923031112242e-03
    54   -1.625698063191e-02
    55    3.175912865611e-03
    56    4.029712532347e-04
    57    1.825134601450e-03
    58    3.413046993936e-04
    59   -2.456838467379e-03
    60    5.023161394579e-04
    61    3.362511619785e-03
    62    2.837425290128e-04
    63    4.264636707564e-02
    64    1.000299528298e-01
    65   -1.470876298211e-01
    66   -2.380252170204e-01
    67   -7.396427844621e-02
    68   -3.977401800187e-02
    69   -9.901685086424e-02
    70    3.343654277086e-02
    71   -4.249185667275e-02
    72   -7.149401086325e-02
    73    4.959576226862e-02
    74   -6.714477168448e-03
    75   -1.350745289866e-02
    76    7.025986087638e-03
    77   -4.527423911506e-03
    78    4.686311344753e-03
    79    5.544379025614e-03
    80   -6.889609272377e-03
    81   -2.848517576237e-03
    82   -1.240108253361e-02
    83    1.288131414319e-02
    84    3.177133545932e-03
    85   -1.158044773358e-02
    86   -2.952269330112e-03
    87    1.595945797460e-03
    88   -2.109524551606e-03
    89    2.254989865968e-04
    90    3.565751390584e-03
    91    4.977605991895e-04
    92   -1.208591629399e-03
    93    4.037575452824e-04
    94   -6.956324216407e-02
    95   -1.631636076949e-01
    96    2.401609762341e-01
    97    3.874170543214e-01
    98    1.209796628895e-01
    99   -4.296913522774e-02
   100   -3.142079895188e-02
   101   -4.192306171219e-02
   102   -4.637387567704e-02
   103    1.315882625387e-02
   104   -4.534106946016e-02
   105   -7.371014182142e-03
   106   -6.772531971420e-04
   107   -7.235496964913e-03
   108    2.140665243898e-03
   109    3.114699445697e-03
   110   -2.987972128013e-03
   111    3.823256467956e-03
   112   -3.087957232367e-03
   113   -2.629898823944e-03
   114    7.382099717094e-03
   115   -1.096365005059e-02
   116   -4.277232741135e-03
   117   -1.124543374131e-02
   118    1.760345944851e-03
   119   -8.644872530491e-04
   120    7.945166847834e-04
   121    1.682088763567e-04
   122    1.279661658521e-03
   123    1.514713416540e-03
   124    1.117299393300e-03
Sym=X
Ene= -1.037705
Spin=Alpha
Occup=1
     1    5.607859618054e-02
     2    1.315405631234e-01
     3   -1.935149380936e-01
     4   -3.136026635651e-01
     5   -9.889925747616e-02
     6   -5.864128577628e-02
     7   -1.750834072376e-02
     8    7.222494785959e-02
     9   -7.422901937663e-02
    10   -1.501393732781e-02
    11    3.664912108522e-02
    12   -1.133509080657e-02
    13   -2.663720476169e-03
    14    8.157102534185e-03
    15    8.048070698950e-03
    16    9.910277839511e-04
    17   -1.184020067590e-04
    18   -4.417204537552e-03
    19   -2.330519092064e-03
    20    1.107905234527e-02
    21   -8.971431894326e-03
    22    1.809846629018e-04
    23   -1.332286079435e-02
    24   -4.628100193908e-03
    25    2.317485653816e-03
    26    1.998577785915e-03
    27   -1.416398823152e-04
    28   -1.356234726789e-03
    29    8.852615667310e-05
    30   -1.491619688248e-03
    31   -1.519124324350e-03
    32    3.355363903199e-02
    33    7.870322936370e-02
    34   -1.158729524976e-01
    35   -1.873621877331e-01
    36   -5.930640193362e-02
    37    3.775647748108e-02
    38    4.996270123992e-03
    39    1.121739176339e-01
    40    4.883024326194e-02
    41    1.390160956854e-02
    42    8.807135598317e-02
    43    7.511331547653e-03
    44    1.815316266957e-03
    45    1.606912885754e-02
    46    5.575558995668e-03
    47   -8.825238741072e-03
    48   -3.788847662900e-03
    49   -3.657685242013e-03
    50   -2.431292855912e-03
    51    1.195062973114e-02
    52   -1.246837743746e-02
    53   -4.143844951545e-03
    54   -9.654448705606e-03
    55   -9.295065427328e-03
    56   -1.140576222817e-03
    57   -3.008122146928e-03
    58   -1.674910373901e-03
    59    1.702266836897e-03
    60    1.632543507692e-03
    61    1.077816504294e-03
    62    1.990431480641e-03
    63   -6.015257359471e-02
    64   -1.411030101202e-01
    65    2.075122733387e-01
    66    3.364206537245e-01
    67    1.058778109840e-01
    68    2.884387861933e-02
    69   -5.999068547078e-02
    70    5.887564339859e-02
    71    3.686325778460e-02
    72   -6.833856471833e-02
    73    1.955451822279e-02
    74    5.532944063271e-03
    75   -1.074896206660e-02
    76    5.625689860037e-03
    77   -7.371402499535e-03
    78   -8.195234093839e-04
    79    1.455042472446e-03
    80   -3.080207880804e-03
    81   -3.707503610209e-03
    82   -6.330381286285e-03
    83   -7.920137864807e-03
    84    1.116928123696e-02
    85   -7.145752755387e-03
    86   -1.030299127946e-02
    87    2.604210050043e-03
    88   -3.469178106455e-04
    89    2.785884833556e-04
    90    5.184504978711e-04
    91    1.634089907331e-03
    92   -1.915035220314e-03
    93    8.231428340925e-04
    94   -2.899910365620e-02
    95   -6.802524245182e-02
    96    1.001750763404e-01
    97    1.616587452560e-01
    98    5.120318494778e-02
    99   -1.144800304262e-02
   100    2.219405908489e-02
   101    1.203162176018e-01
   102   -1.387359699829e-02
   103    3.538796153148e-02
   104    9.778794496038e-02
   105   -2.158262931342e-03
   106    5.119519483903e-03
   107    1.755491017920e-02
   108   -3.222326405237e-03
   109   -3.876311350604e-03
   110    1.080635132582e-02
   111   -2.530199808765e-03
   112   -2.330197152501e-03
   113   -7.815227553030e-03
   114   -6.708618673211e-03
   115    1.666689871112e-02
   116   -9.268064760510e-03
   117   -6.824902632761e-03
   118   -2.131696988825e-03
   119    5.391918552417e-04
   120   -2.239427848449e-03
   121   -2.646058903526e-03
   122   -2.163864973584e-03
   123    1.645750001348e-03
   124   -1.041902274598e-03
Sym=X
Ene= -0.685901
Spin=Alpha
Occup=1
     1    2.250616562566e-02
     2    5.371031709356e-02
     3   -9.343582238435e-02
     4   -1.300005455192e-01
[...]
    80   -9.012266742109e-03
    81   -6.635309571952e-03
    82   -1.150298764142e-02
    83    6.604328482053e-03
    84    2.755836477726e-03
    85   -2.388109782694e-02
    86   -1.712315511657e-02
    87   -5.581507272933e-04
    88   -7.437205559500e-04
    89    2.705225118539e-03
    90    3.103136115758e-03
    91    2.070093306750e-03
    92   -3.896774818576e-03
    93    1.042102225591e-03
    94   -5.048040062323e-04
    95   -1.205462224411e-03
    96    2.141132511684e-03
    97    2.686202619641e-03
    98    2.114867342464e-03
    99   -5.415525170254e-03
   100    4.992839391053e-02
   101    2.211055533878e-01
   102   -5.359573118262e-03
   103    4.927662678472e-02
   104    2.176597035306e-01
   105   -2.647151688212e-03
   106    2.475617734825e-02
   107    1.108133758483e-01
   108    1.472805419840e-03
   109   -7.330046230687e-03
   110    7.722284872363e-03
   111   -4.141390012865e-03
   112   -3.336638595383e-03
   113    2.095730415387e-03
   114   -1.881201384436e-02
   115    2.228678020404e-02
   116   -1.090742088026e-02
   117   -8.445099277461e-03
   118   -3.092913547310e-03
   119    1.040047990213e-03
   120    1.051080838246e-03
   121   -5.421284499651e-04
   122   -3.908033663544e-03
   123    2.821294071427e-03
   124   -1.757989170435e-03
Sym=X
Ene= 0.188923
Spin=Alpha
Occup=0
     1   -3.878482009457e-03
     2   -9.137392055137e-03
     3    9.942314289937e-03
     4    3.410911456706e-02
     5    2.603322214361e-01
     6    1.746972519430e-01
     7    2.090562966487e-01
     8   -1.483510427442e-01
     9    1.812044184384e-01
    10    2.087880429458e-01
    11   -1.412852326767e-01
    12    5.079413554055e-01
    13    5.193576251292e-01
    14   -2.966296087350e-01
    15    4.221148625100e-03
    16    1.286554140130e-03
    17   -1.643530668909e-03
    18   -6.245407236309e-03
    19   -7.078479816706e-03
    20   -5.321521606295e-03
    21    1.005562965289e-02
    22    8.453025136381e-03
    23    7.423820108596e-04
    24   -2.085406055907e-03
    25   -1.180472746902e-03
    26    1.861237881747e-04
    27    1.347150185488e-03
    28    3.514207342619e-04
    29    2.814601698637e-04
    30   -6.775182335465e-04
    31   -5.096993110868e-04
    32    3.311124928698e-03
    33    7.798536866778e-03
    34   -8.450643171745e-03
    35   -2.913321206039e-02
    36   -2.225144276950e-01
    37    1.552333269042e-01
    38   -4.434953949243e-02
    39    2.569450937586e-01
    40    1.615010595874e-01
    41   -4.047815194842e-02
    42    2.531511622372e-01
    43    4.600119032257e-01
    44   -6.597807648529e-02
    45    6.178117870087e-01
    46   -2.175599118858e-03
    47    7.622132758339e-03
    48    1.812659502111e-03
    49    6.476564021290e-03
    50    2.328240885571e-03
    51    1.092225829041e-02
    52    4.751111711257e-03
    53   -5.508721671600e-03
    54   -1.536311801143e-03
    55   -2.655332935805e-03
    56    1.337343436604e-03
    57   -5.776728253888e-04
    58   -8.505252049856e-04
    59   -8.149379397597e-04
    60    1.011495908059e-03
    61   -3.489039230805e-04
    62   -2.545165975418e-04
    63    6.107394249576e-04
    64    1.437644306880e-03
    65   -1.529508099281e-03
    66   -5.587383096098e-03
    67   -4.216909756184e-02
    68   -1.163671495246e-01
    69   -8.312107466944e-02
    70    3.422852861133e-03
    71   -1.181687379498e-01
    72   -8.280300235739e-02
    73    4.489336257850e-03
    74   -2.367808687186e-01
    75   -1.784033329277e-01
    76    3.460916762500e-02
    77    1.758185613590e-04
    78   -2.147438319720e-03
    79   -8.794573336698e-04
    80    1.623987905755e-03
    81    1.001793973822e-03
    82   -2.418224144238e-03
    83   -7.979881348641e-04
    84    9.246501269635e-04
    85   -1.147000939494e-03
    86    4.177173088254e-03
    87   -2.545818109702e-04
    88   -8.609005768418e-04
    89    1.358302735370e-04
    90    2.552347677995e-04
    91    1.560329647234e-03
    92    2.215935893182e-03
    93    2.018902928013e-03
    94   -5.190951591944e-05
    95   -1.217384786016e-04
    96    1.034288999210e-04
    97    4.632645325459e-04
    98    4.493851503591e-03
    99   -1.716322084165e-01
   100   -6.635553456232e-02
   101   -9.538928713743e-02
   102   -1.729095913487e-01
   103   -6.658436021135e-02
   104   -9.588813552942e-02
   105   -3.668315040575e-01
   106   -1.416125614852e-01
   107   -2.111682584922e-01
   108   -1.135628719445e-03
   109   -3.550398294407e-03
   110    1.001148326710e-03
   111   -1.635157361668e-03
   112    2.448982226565e-03
   113   -6.733010158236e-04
   114   -5.669843818924e-03
   115   -2.914589754104e-03
   116    2.482685871059e-03
   117   -2.746003085572e-03
   118   -1.049019990323e-03
   119   -1.357647910577e-03
   120   -6.352985854856e-04
   121    1.751397485005e-03
   122   -4.362687686991e-04
   123    8.022450790083e-04
   124    1.400659379833e-03
Sym=X
Ene= 0.190962
Spin=Alpha
Occup=0
     1   -7.074094210599e-04
     2   -1.666039110893e-03
     3    1.798395437847e-03
     4    6.264598517659e-03
     5    4.820274268093e-02
     6    2.996520356252e-02
     7   -1.278176568000e-02
     8   -2.518208634089e-02
     9    3.125920441372e-02
    10   -1.295528036969e-02
    11   -2.395509573903e-02
    12    8.623878298243e-02
    13   -2.202755701041e-02
    14   -4.716366419054e-02
    15    8.259124598012e-04
    16    4.510303815261e-07
    17    5.220853979577e-04
    18   -7.137666896463e-04
    19   -3.372266282629e-04
    20   -3.641684427627e-04
    21    1.302919234836e-03
    22    9.636696841654e-04
    23    8.832274255470e-04
    24   -8.218097495270e-04
    25   -1.221486772327e-03
    26    1.324113031139e-03
    27    1.673486888653e-04
    28   -2.440829487928e-03
    29   -6.777336901685e-05
    30    2.378940930757e-03
    31   -1.480411372400e-04
    32    5.322940282060e-04
    33    1.252209617509e-03
    34   -1.280280478203e-03
    35   -4.710413256507e-03
    36   -3.912084658658e-02
    37    1.132648131536e-01
    38   -2.430295019024e-01
    39   -7.446162885739e-02
    40    1.146145278049e-01
    41   -2.426427257224e-01
    42   -7.522281421942e-02
    43    2.878000419520e-01
    44   -5.760730834864e-01
    45   -1.774474949542e-01
    46    3.531073430826e-03
    47   -2.903102177890e-03
    48    4.029135217628e-03
    49    5.818378718024e-03
    50   -1.857246582859e-03
    51    4.819477599144e-03
    52    1.397365340273e-03
    53    4.921239187382e-03
    54   -4.125641363922e-03
    55    6.087667558248e-03
    56   -1.897472455631e-04
    57   -7.105854822030e-04
    58   -4.138646316013e-04
    59   -8.078769563156e-05
    60   -1.371116101436e-03
    61    1.241359689910e-03
    62   -1.200736743452e-03
    63    5.533796720772e-04
    64    1.301789146061e-03
    65   -1.311049856198e-03
    66   -4.959446562800e-03
    67   -4.179750514603e-02
    68    6.554427903395e-02
    69    2.555336416051e-01
    70   -1.167884721359e-01
    71    6.503452042121e-02
    72    2.569262990004e-01
    73   -1.157338787824e-01
    74    1.617334392210e-01
    75    6.335708563332e-01
    76   -2.693029876231e-01
    77   -3.293589439694e-03
    78    3.135312159960e-03
    79    2.087899659057e-03
    80   -6.560373525773e-03
    81   -4.494739899393e-03
    82    5.341043666990e-03
    83   -8.903185960273e-04
    84   -8.658390774187e-03
    85   -2.040480075573e-03
    86   -4.676852850175e-03
    87   -1.487856637415e-03
    88   -9.348515279544e-05
    89    1.128810420441e-03
    90   -1.119466930427e-04
    91    1.217919721619e-03
    92    2.618091929799e-05
    93    6.205196687590e-04
    94   -3.781150436043e-04
    95   -8.875642326503e-04
    96    7.918164180289e-04
    97    3.408773579364e-03
    98    3.271300125107e-02
    99   -2.035440946326e-01
   100    7.090684770851e-03
   101    2.217691015950e-01
   102   -2.044987935435e-01
   103    8.342966150244e-03
   104    2.215977347534e-01
   105   -4.899511012225e-01
   106    3.330494067415e-02
   107    5.419390998770e-01
   108   -1.225180173733e-03
   109    5.955495772792e-04
   110   -6.936792022381e-03
   111    1.208259467233e-03
   112    6.403380685949e-03
   113   -1.019736327083e-02
   114    3.090953456028e-04
   115    1.652616770610e-03
   116    4.661558937993e-03
   117   -1.643283144386e-03
   118    8.686643457603e-04
   119    9.865277125261e-04
   120   -1.137162128432e-03
   121   -6.448832228473e-04
   122    8.691898865843e-05
   123   -3.134306039893e-04
   124    8.472526021102e-04
Sym=X
Ene= 0.192546
Spin=Alpha
Occup=0
     1    3.842983057501e-03
     2    9.048416415670e-03
     3   -9.708527567339e-03
     4   -3.420132008367e-02
     5   -2.648302908562e-01
     6   -1.546120127158e-01
     7    2.252910958646e-01
     8    1.287346614496e-01
     9   -1.621139396852e-01
    10    2.262821445410e-01
    11    1.223627391850e-01
    12   -4.422540508518e-01
    13    5.330756349134e-01
    14    2.278077718252e-01
    15   -5.796279595237e-03
    16    2.156088474401e-03
    17   -6.190644573961e-03
    18    3.583369351102e-04
    19   -2.082513775164e-03
    20   -2.069526307678e-03
    21   -3.059000372999e-03
    22   -1.773968796241e-03
    23   -1.064369990489e-02
    24    7.399478674774e-03
    25   -5.105604996130e-04
    26    6.344748624896e-04
    27   -6.861342901410e-04
    28   -9.497884179414e-04
    29    6.467668874393e-04
    30   -8.318603349158e-04
    31    9.004967013603e-04
    32   -9.052790940117e-04
    33   -2.133355787133e-03
    34    2.368155360219e-03
    35    7.824834050884e-03
    36    5.921585090900e-02
    37    1.327734652516e-02
    38   -1.081849799282e-01
    39   -1.046998979998e-01
    40    1.200040671160e-02
    41   -1.090957580877e-01
    42   -1.029904327737e-01
    43    2.373762030959e-04
    44   -2.875482938081e-01
    45   -2.943681880253e-01
    46    3.033049916926e-03
    47   -4.736207792154e-03
    48    1.704012952640e-03
    49    8.643497225993e-04
    50   -1.926506272630e-03
    51   -1.320282726593e-03
    52    3.480406000799e-04
    53    4.245975330685e-03
    54   -1.341844599126e-03
    55    4.829922127635e-03
    56    2.151117687690e-03
    57   -1.012138081130e-04
    58    1.943317481565e-03
    59    1.058908205934e-03
    60    1.654961174630e-03
    61    1.595571965954e-04
    62    5.769559290717e-04
    63   -2.990494330109e-03
    64   -7.041348733682e-03
    65    7.488770929250e-03
    66    2.666531131857e-02
    67    2.099354121694e-01
    68    2.537226473045e-01
    69   -5.359092011078e-02
    70    1.184524145040e-01
    71    2.580957961644e-01
    72   -5.745644702303e-02
    73    1.128049502821e-01
    74    6.147310853566e-01
    75   -1.707310821608e-01
    76    2.062605611245e-01
    77    4.617608285397e-03
    78    6.081747804374e-03
    79    1.086202741501e-03
    80    1.354770624913e-03
    81    1.644227405610e-03
    82    5.889105220937e-04
    83   -5.675912702986e-04
    84    5.867335260342e-03
    85    6.728039762787e-03
    86   -8.305690207887e-03
    87    1.759966205406e-04
    88   -9.953215291306e-04
    89   -2.219615685157e-04
    90   -7.952465535626e-04
    91    1.664371116296e-03
    92    5.449613247480e-04
    93   -4.161080377446e-04
    94    4.559876386689e-05
    95    1.070333462250e-04
    96   -9.414663569197e-05
    97   -4.178922596672e-04
    98   -4.205413987961e-03
    99   -1.315742900694e-01
   100   -7.823177046414e-02
   101   -1.802178089658e-01
   102   -1.314555238257e-01
   103   -7.824628226447e-02
   104   -1.795921939789e-01
   105   -3.429630338100e-01
   106   -2.091413037899e-01
   107   -4.834536161792e-01
   108   -1.660532025492e-03
   109   -6.627783416099e-03
   110    4.515009899929e-03
   111   -3.543654353857e-03
   112    2.240433461768e-03
   113    3.327347266930e-03
   114   -4.861037470082e-03
   115   -5.449166789690e-03
   116    2.931222164620e-03
   117   -4.557120578802e-03
   118    1.178384178726e-03
   119    2.146583103005e-03
   120    1.331865350042e-03
   121   -4.505420919422e-04
   122   -9.667662535035e-04
   123    3.789369920272e-04
   124   -2.477073128371e-04
Sym=X
Ene= 0.211975
Spin=Alpha
Occup=0
     1   -3.097279421523e-02
     2   -7.279142796531e-02
     3    7.477191612803e-02
     4    2.789603575072e-01
     5    2.347916494986e+00
     6    1.065447032985e-01
     7   -8.231073594192e-03
     8    8.129052340584e-02
     9    1.579095291373e-01
    10   -9.329129632395e-03
    11    1.477495281651e-01
    12    1.287020613321e+00
    13   -1.466206523667e-02
    14    5.770021953388e-01
    15    8.971092597518e-03
    16   -4.454629616907e-03
    17    4.206414013714e-03
    18   -8.333990694994e-03
    19   -4.098060390637e-03
    20    2.386978787184e-03
    21    5.741718040027e-02
    22   -3.061282153700e-03
    23    3.742075498305e-02
    24    2.757852248445e-03
    25    3.453206911697e-05
    26    2.633025241621e-03
    27    1.712097205480e-03
    28    1.913073521503e-03
    29   -1.091339363581e-03
    30    5.647045694356e-04
    31    2.677478250680e-04
    32    3.818005890865e-02
    33    8.969024378255e-02
    34   -9.160307427002e-02
    35   -3.472579703301e-01
    36   -2.896967281748e+00
    37    1.414558283970e-01
    38    5.865120201611e-02
    39   -6.734884859081e-02
    40    2.209578190461e-01
    41    1.121148371783e-01
    42   -1.074274383301e-01
    43    1.542227487691e+00
    44    4.874310252205e-01
    45   -4.436792650192e-01
    46   -8.525299709026e-04
    47   -1.045451975069e-03
    48    2.557199533364e-03
    49    1.091746585065e-02
    50    3.786917759723e-03
    51    2.721562098421e-02
    52    3.745818644786e-02
    53    1.799309900411e-02
    54   -4.232179805509e-02
    55   -5.209942196078e-02
    56    2.849895633907e-03
    57    1.318723785523e-04
    58   -1.775425963933e-03
    59   -1.981250059954e-04
    60   -2.304394415061e-03
    61    1.495145094712e-04
    62    2.134732470568e-03
    63   -1.683537879202e-02
    64   -3.957755042670e-02
    65    4.069975127638e-02
    66    1.510122887677e-01
    67    1.283702503467e+00
    68    9.659912732716e-02
    69   -1.941974820262e-02
    70   -3.659690453707e-02
    71    1.018536802017e-01
    72   -4.353373957341e-02
    73   -7.640605878241e-02
    74    9.766651789566e-01
    75   -1.841980875767e-01
    76   -3.688035691910e-01
    77    6.676649142494e-03
    78    1.717059440199e-02
    79    3.194429500934e-03
    80   -3.114244784929e-03
    81    1.245891153688e-03
    82    8.078339183876e-03
    83   -3.484166093960e-02
    84    1.748664365122e-02
    85    4.412118751759e-03
    86   -1.583918891743e-02
    87   -9.628501188187e-04
    88   -6.703492914107e-04
    89   -1.920739431229e-03
    90   -6.423454006965e-06
    91    8.431012138728e-04
    92   -1.167486038392e-03
    93   -2.865510622233e-04
    94    9.457744860189e-03
    95    2.222127918370e-02
    96   -2.258047984671e-02
    97   -8.629510592944e-02
    98   -7.319321118305e-01
    99    7.943254410084e-02
   100   -2.240678954603e-02
   101    3.391240816235e-03
   102    7.403912229847e-02
   103   -5.006475511348e-02
   104    1.070442058372e-02
   105    8.663873866047e-01
   106   -2.127679526321e-01
   107    2.154322973052e-02
   108    3.631639128166e-03
   109    9.139469153151e-03
   110    4.602088581796e-03
   111    2.808100444607e-03
   112   -1.583017701742e-02
   113    7.088498434299e-03
   114   -9.597224593405e-03
   115    3.153137742779e-03
   116    6.525045856987e-03
   117    2.849552846497e-02
   118   -1.006331251335e-03
   119   -2.868453537185e-05
   120    1.138571062269e-03
   121   -1.162847001218e-03
   122    1.139959204125e-03
   123    2.953164245107e-04
   124    2.417246270971e-04
Sym=X
Ene= 0.213684
Spin=Alpha
Occup=0
     1    4.392933896151e-03
     2    1.031686261296e-02
     3   -1.039493544608e-02
     4   -4.034240380847e-02
     5   -3.412731043551e-01
     6   -1.893330750769e-02
     7    5.830410631562e-02
     8   -7.840059286737e-03
     9   -2.895575040752e-02
    10    4.540996172907e-02
    11   -1.528250204189e-02
    12   -1.294122577746e-01
    13    7.752529911961e-01
    14   -1.415939297787e-01
    15   -3.122387375336e-03
    16    5.027271884718e-03
    17   -1.181970775090e-02
    18   -6.387284928398e-03
    19   -1.253994392869e-02
    20   -5.287049824975e-04
    21   -1.101726876489e-02
    22    1.631137112707e-02
    23    5.036115748209e-05
    24    1.730886698357e-02
    25   -9.189786545514e-04
    26    2.356981842290e-04
    27   -4.441488006436e-04
    28   -6.165851986792e-04
    29   -6.384607338243e-04
    30   -1.249108757192e-03
    31   -6.593309177278e-04
    32    2.216701299552e-02
    33    5.205119202619e-02
    34   -5.261159248591e-02
    35   -2.033778864827e-01
    36   -1.701586131110e+00
    37    4.856080041987e-02
    38    9.299840900700e-02
    39   -3.703051403293e-02
    40    1.035443421604e-01
    41    1.118873007767e-01
    42   -5.901129540996e-02
    43    4.391354334568e-01
    44    1.057659744488e+00
    45   -3.030801436225e-01
    46   -7.017261512768e-03
    47    9.200507231787e-04
    48   -9.159633804332e-03
    49   -1.169754671390e-02
    50    6.126800984790e-03
    51    1.943651578331e-02
    52    1.894801115206e-02
    53    2.175989460737e-02
    54   -9.698078356150e-04
    55   -3.978097803956e-02
    56    5.961218547156e-04
    57    8.223703037727e-04
    58   -8.463151101881e-04
    59   -9.107121418598e-04
    60   -5.474416614823e-04
    61    8.294609213167e-04
    62    2.446812316834e-03
    63    1.785689100532e-02
    64    4.195842498816e-02
    65   -4.252394396085e-02
    66   -1.623937065748e-01
    67   -1.392640034849e+00
    68   -1.209970998931e-02
    69    8.100508671019e-02
    70    4.104767926697e-02
    71   -3.025003500628e-02
    72    9.419138429012e-02
    73    8.743823762139e-02
    74   -1.635001419271e-01
    75    9.924944413282e-01
    76    3.119843900025e-01
    77   -6.608849779616e-03
    78    2.729624163199e-03
    79    6.054781779240e-03
    80   -1.239723552120e-02
    81   -9.266078656495e-03
    82   -6.351832640900e-03
    83    1.320809721144e-02
    84   -3.460731730399e-02
    85    1.680965915494e-02
    86    1.888170373230e-02
    87    1.013076567562e-04
    88   -9.214714215072e-04
    89    2.226985328127e-03
    90    1.134140102389e-03
    91   -3.000228641961e-04
    92   -4.031461327286e-04
    93   -2.254831898298e-04
    94   -4.442985808223e-02
    95   -1.043608782982e-01
    96    1.056203253543e-01
    97    4.059153890931e-01
    98    3.435668075654e+00
    99   -2.843340802700e-02
   100    1.844641752146e-01
   101   -4.213686928528e-02
   102   -6.070706174071e-02
   103    2.999028990266e-01
   104   -7.219256393426e-02
   105   -2.874030941884e-01
   106    1.880497103756e+00
   107   -3.697809396711e-01
   108    4.563878145902e-03
   109    2.529281159758e-03
   110    2.204187928696e-03
   111    7.438768905754e-03
   112    2.730133385037e-04
   113   -4.216845625351e-02
   114    6.316085053654e-03
   115   -3.512796867854e-02
   116   -7.264528849357e-02
   117   -3.385907544199e-02
   118    2.889341512011e-03
   119   -1.003787863333e-03
   120   -1.817152067554e-03
   121    6.882107925476e-04
   122    4.153565574379e-04
   123    2.890643327003e-03
   124   -2.358680946458e-03
[5D7F]

======= END OF MOLDEN-FORMATTED INPUT FILE =======


        *************************************************************
        *                                                           *
        *  Thank you very much for using Q-Chem.  Have a nice day.  *
        *                                                           *
        *************************************************************


remove work dirs /tmp/qchem30456.0 -- /tmp/qchem30456.0
rm -rf /tmp/qchem30456.0
rm -rf /tmp/qchem30456
