 --invoking executable--
/usr/local/cfour/bin/xjoda


   *************************************************************************
         <<<     CCCCCC     CCCCCC   |||     CCCCCC     CCCCCC   >>>
       <<<      CCC        CCC       |||    CCC        CCC         >>>
      <<<      CCC        CCC        |||   CCC        CCC            >>>
    <<<        CCC        CCC        |||   CCC        CCC              >>>
      <<<      CCC        CCC        |||   CCC        CCC            >>>
       <<<      CCC        CCC       |||    CCC        CCC         >>>
         <<<     CCCCCC     CCCCCC   |||     CCCCCC     CCCCCC   >>>
   *************************************************************************

     ****************************************************************
     * CFOUR Coupled-Cluster techniques for Computational Chemistry *
     ****************************************************************


   Department of Chemistry                Institut fuer Physikalische Chemie
   University of Texas at Austin          Universitaet Mainz
   Austin, TX  78712, USA                 D-55099 Mainz, Germany

                       Version 2.00beta

                     kbob-G41MT-S2                                     
                     Пт. мая 15 22:02:20 KRAT 2015                
                     integer*8 version is running

********************************************************************************
*                          Input from ZMAT file                                *
********************************************************************************
test HF/cc-pVQZ energy                                                          
N       0.5200      0.5300      0.5100                                          
N      -0.5200     -0.5200      0.5200                                          
N      -0.5200      0.5200     -0.5200                                          
N       0.5200     -0.5200     -0.5200                                          
                                                                                
*CFOUR(CALC=HF                                                                  
SCF_CONV=9                                                                      
BASIS=cc-pVQZ                                                                   
COORD=CARTESIAN)                                                                
                                                                                
********************************************************************************
    -------------------------------------------------------------------
                    CFOUR Control Parameters 
    -------------------------------------------------------------------
        External           Internal           Value            Units
          Name               Name
    -------------------------------------------------------------------
       ABCDTYPE             IABCDT         STANDARD     [  0]   ***   
       ANHARMONIC           IANHAR         OFF          [  0]   ***   
       ANH_ALGORIT          IANALG         STANDARD     [  0]   ***   
       ANH_DERIVAT          IANDER         SECOND       [  1]   ***   
       ANH_STEPSIZ          ICUBST             50000          x 10-6  
       ANH_SYMMETR          IANHSM         ABELIAN      [  0]   ***   
       AO_LADDERS           IAOLAD         SINGLEPASS   [  1]   ***   
       BASIS                IBASIS         PVQZ         [ 15]   ***   
       BREIT                IBREIT         OFF          [  0]   ***   
       BRUCK_CONV           IBRTOL          10D-  4             ***   
       BRUECKNER            IBRKNR             OFF      [  0]   ***   
       BUFFERSIZE           IBUFFS            600               ***   
       CACHE_RECS           ICHREC             10               ***   
       CALCLEVEL            ICLLVL           SCF        [  0]   ***   
       CCORBOPT             ICCORB             OFF      [  0] x 0.01  
       CC_CONV              ICCCNV          10D-  7             ***   
       CC_EXPORDER          ICCEOR              0               ***   
       CC_EXTRAPOL          ICCEXT             DIIS     [  1]   ***   
       CC_MAXCYC            ICCCYC              0              cycles 
       CC_PROGRAM           ICCPRO         VCC          [  0]   ***   
       CHARGE               ICHRGE              0               ***   
       CHOLESKY             ICHOLE         OFF          [  0]   ***   
       CIS_CONV             ICISTL              5               ***   
       COMM_SIZE            IPSIZE            ***               ***   
       CONSTANT             ICONST         OLD          [  1]   ***   
       CONTINUUM            ICONTU         NONE         [  0]   ***   
       CONTRACTION          ICNTYP          GENERAL     [  1]   ***   
       COORDINATES          ICOORD         CARTESIAN    [  1]   ***   
       CPHF_CONVER          ICPHFT          10D- 16             ***   
       CPHF_MAXCYC          ICPHFC             64              cycles 
       CUBIC                ICUBIC         OFF          [  0]   ***   
       CURVILINEAR          ICURVY            OFF       [  0]   ***   
       DBOC                 IDBOC          OFF          [  0]   ***   
       DCT                  IDCT           OFF          [  0]   ***   
       DERIV_LEV            IDRLVL            ZERO      [  0]   ***   
       DIAG_MRCC            IEOMST          10D-  0             ***   
       DIFF_TYPE            IDIFTY         RELAXED      [  0]   ***   
       DIRECT               IDIRCT         OFF          [  0]   ***   
       DROPMO               IDRPMO      NONE         
       ECP                  IECP           OFF          [  0]   ***   
       EIGENVECTOR          IVEC                1               ***   
       EL_ANHARM            IELANH         OFF          [  0]   ***   
       EOMFOLLOW            IEOMSR         ENERGY       [  0]   ***   
       EOM_MRCC             IMRCCE         NEW          [  1]   ***   
       EOM_NONIT            EOMNON         OFF          [  0]   ***   
       EOM_NSING            IEOMSI          10D-  0             ***   
       EOM_NSTATES          IMRCCD         DAVIDSON     [  0]   ***   
       EOM_NTRIP            IEOMTR          10D-  0             ***   
       EOM_ORDER            IEXORD         ENERGY       [  0]   ***   
       ESTATE_CONV          IEXTOL          10D-  5             ***   
       ESTATE_DIAG          IEXDIG         ITERATIVE    [  0]   ***   
       ESTATE_LOCK          IESLOC         ON           [  1]   ***   
       ESTATE_MAXC          IEXMXC             20               ***   
       ESTATE_PROP          IEXPRP         OFF          [  0]   ***   
       EVAL_HESS            IRECAL              0            # of cyc.
       EXCITATION           IEXCIT              0               ***   
       EXCITE               IEXCIT         NONE         [  0]   ***   
       FCGRADNEW            IFCGNW         OFF          [  0]   ***   
       FC_FIELD             IFINFC              0             x 10-6  
       FD_CALTYPE           IFDCAL         GRADONLY     [  0]   ***   
       FD_PROJECT           IFDPRJ         OFF          [  1]   ***   
       FD_STEPSIZE          IDISFD              0            10-4 bohr
       FD_USEGROUP          IFDGRP         FULL         [  0]   ***   
       FILE_RECSIZ          IFLREC              4096           words  
       FINITE_PERT          IFIPER              0             x 10-6  
       FIXGEOM              IFIXGM         OFF          [  0]   ***   
       FOCK                 IFOCK          AO           [  1]   ***   
       FREQ_ALGORI          IVIALG         STANDARD     [  0]   ***   
       FROZEN_CORE          IFROCO         OFF          [  0]   ***   
       FROZEN_VIRT          IFROVI         OFF          [  0]   ***   
       GAMMA_ABCD           IGABCD         STORE        [  0]   ***   
       GAMMA_ABCI           IGABCI         STORE        [  0]   ***   
       GENBAS_1             IGNBS1              0               ***   
       GENBAS_2             IGNBS2              0               ***   
       GENBAS_3             IGNBS3              0               ***   
       GENBAS_4             IGNBS4              0               ***   
       GEO_CONV             ICONTL              5              H/bohr 
       GEO_MAXCYC           IOPTCY             50               ***   
       GEO_MAXSTEP          IMXSTP            300            millibohr
       GEO_METHOD           INR            SINGLE_POINT [  5]   ***   
       GIAO                 IGIAO          OFF          [  1]   ***   
       GIMIC                IGIMIC         OFF          [  0]   ***   
       GRID                 IGRID          OFF          [  0]   ***   
       GRID_ALGO            IGALGO         SERIAL       [  0]   ***   
       GUESS                IGUESS            MOREAD    [  0]   ***   
       HBAR                 IHBAR              OFF      [  0]   ***   
       HESS_TYPE            IHESTP         SCF          [  0]   ***   
       HF2_FILE             IHF2Fl         USE          [  1]   ***   
       HFSTABILITY          ISTABL         OFF          [  0]   ***   
       INCORE               INCORE             OFF      [  0]   ***   
       INPUT_MRCC           IMRCC          ON           [  1]   ***   
       INTEGRALS            INTTYP             VMOL     [  1]   ***   
       JODA_PRINT           IJPRNT              0               ***   
       LINDEP_TOL           ILINDP              8               ***   
       LINEQ_CONV           IZTACN          10D-  7           cycles  
       LINEQ_EXPOR          ILMAXD              5               ***   
       LINEQ_MAXCY          ILMAXC             50               ***   
       LINEQ_TYPE           ILTYPE         DIIS         [  1]   ***   
       LOCK_ORBOCC          ILOCOC             OFF      [  0]   ***   
       MEMORY_SIZE          IMEMSZ         100000000           words  
       MEM_UNIT             IMEMU          INTEGERWORDS [  0]   ***   
       MRCC                 IMRCCC         OFF          [  0]   ***   
       MULTIPLICTY          IMULTP              1               ***   
       NEGEVAL              IDIE             ABORT      [  0]   ***   
       NEWNORM              INEWNO         OFF          [  0]   ***   
       NON-HF               INONHF             OFF      [  0]   ***   
       NTOP_TAMP            ITOPT2             15               ***   
       NUC_MODEL            INUCMO         POINT        [  0]   ***   
       OCCUPATION           IOCCU   ESTIMATED BY SCF 
       OPEN-SHELL           IOPEN          SPIN-ORBITAL [  0]   ***   
       ORBITALS             IORBTP           STANDARD   [  0]   ***   
       PARALLEL             IPARAL         ON           [  1]   ***   
       PARA_INT             IPINTS         ON           [  1]   ***   
       PARA_PRINT           IPPRIN              0               ***   
       PERT_ORB             IPTORB         STANDARD     [  0]   ***   
       POINTS               IGRDFD              0               ***   
       PRINT                IPRNT               0               ***   
       PROPS                IPROPS             OFF      [  0]   ***   
       PROP_INTEGR          IINTYP         INTERNAL     [  0]   ***   
       PSI                  IPSI           OFF          [  0]   ***   
       QUARTIC              IQUART         OFF          [  0]   ***   
       RAMAN_INT            IRAMIN         OFF          [  0]   ***   
       RAMAN_ORB            IRAMRE         UNRELAXED    [  0]   ***   
       RDO                  IRDOFM             OFF      [  0]   ***   
       REFERENCE            IREFNC             RHF      [  0]   ***   
       RELATIVIST           IRELAT         OFF          [  0]   ***   
       RELAX_DENS           IRDENS             OFF      [  0]   ***   
       RESET_FLAGS          IRESET             OFF      [  0]   ***   
       RESTART_CC           ICCRES         OFF          [  0]   ***   
       ROT_EVEC             ROTVEC              0               ***   
       SAVE_INTS            ISVINT             OFF      [  0]   ***   
       SCALE_ON             ISTCRT              0               ***   
       SCF_CONV             ISCFCV          10D-  9             ***   
       SCF_DAMPING          IDAMP               0             x 10-3  
       SCF_EXPORDE          IRPPOR              6               ***   
       SCF_EXPSTAR          IRPPLS              8               ***   
       SCF_EXTRAPO          IRPP                ON      [  1]   ***   
       SCF_MAXCYC           ISCFCY            150              cycles 
       SCF_NOSTOP           ISCFST         OFF          [  0]   ***   
       SCF_PRINT            ISCFPR              0               ***   
       SD_FIELD             IFINSD              0             x 10-6  
       SEQUENCE             ISEQUE         OFF          [  0]   ***   
       SOPERT               IPERSO         OFF          [  0]   ***   
       SPHERICAL            IDFGHI             ON       [  1]   ***   
       SPINORBIT            ISOCAL         OFF          [  0]   ***   
       SPINROTATIO          ISRCON         OFF          [  0]   ***   
       SPIN_FLIP            ISPFLP         OFF          [  0]   ***   
       SPIN_ORBIT           ISPORB         OFF          [  0]   ***   
       SPIN_SCAL            ISCSMP         OFF          [  0]   ***   
       SUBGROUP             ISUBGP         DEFAULT      [  0]   ***   
       SUBGRPAXIS           ISBXYZ         X            [  0]   ***   
       SYMMETRY             ISYM             ON         [  0]   ***   
       SYM_CHECK            ISYMCK         OVERRIDE     [  1]   ***   
       T3_EXTRAPOL          IT3EXT         OFF          [  0]   ***   
       TAMP_SUM             IEVERY              0               ***   
       TESTSUITE            ITESTS         OFF          [  0]   ***   
       THERMOCH             ITHERM         OFF          [  0]   ***   
       TOL_CHOLESK          ITOLCH          10D-  4             ***   
       TRANGRAD             IRESRM         OFF          [  0]   ***   
       TRANS_INV            ITRAIN         USE          [  0]   ***   
       TREAT_PERT           ITREAT         SIMULTANEOUS [  0]   ***   
       UIJ_THRESHO          IUIJTH              1               ***   
       UNITS                IUNITS         ANGSTROM     [  0]   ***   
       UNOS                 IUNOS          OFF          [  0]   ***   
       UPDATE_HESS          IHUPDT         ON           [  1]   ***   
       VIBPHASE             ISETPH         STANDARD     [  0]   ***   
       VIBRATION            IVIB              NO        [  0]   ***   
       VIB_ALGORIT          IGEALG         STANDARD     [  0]   ***   
       VNATORB              IVNORB         OFF          [  0]   ***   
       VTRAN                IVTRAN         FULL/PARTIAL [  0]   ***   
       XFIELD               IXEFLD              0             x 10-6  
       XFORM_TOL            IXFTOL          10D- 11             ***   
       YFIELD               IYEFLD              0             x 10-6  
       ZFIELD               IZEFLD              0             x 10-6  
    -------------------------------------------------------------------
  @GETXYZ-I,     4 atoms read from ZMAT.
  1  N          7    14.00307
  2  N          7    14.00307
  3  N          7    14.00307
  4  N          7    14.00307
  1  N          7    14.00307
  2  N          7    14.00307
  3  N          7    14.00307
  4  N          7    14.00307
 factor:   60.199719999999999     
   Rotational constants (in cm-1): 
          0.5532377061             0.5564759291             0.5597913262
   Rotational constants (in MHz): 
      16585.6515012674         16682.7309988681         16782.1241148580
********************************************************************************
   The full molecular point group is C1  .
   The largest Abelian subgroup of the full molecular point group is C1  .
   The computational point group is C1  .
********************************************************************************
 ----------------------------------------------------------------
 Z-matrix   Atomic            Coordinates (in bohr)
  Symbol    Number           X              Y              Z
 ----------------------------------------------------------------
     N         7         1.21417130    -0.00000000     1.19291190
     N         7        -1.39027030     0.80233673     0.58212323
     N         7         0.58082277     0.80233673    -1.37739783
     N         7        -0.40472377    -1.60467345    -0.39763730
 ----------------------------------------------------------------
   Interatomic distance matrix (Angstroms) 

                 N             N             N             N    
                [ 1]        [ 2]        [ 3]        [ 4]
  N    [ 1]     0.00000
  N    [ 2]     1.47790     0.00000
  N    [ 3]     1.46376     1.47078     0.00000
  N    [ 4]     1.47085     1.47078     1.47078     0.00000
   Rotational constants (in cm-1): 
          0.5597913262             0.5564759291             0.5532377061
   Rotational constants (in MHz): 
      16782.1241148580         16682.7309988681         16585.6515012675
  There are  220 basis functions.
 @GEOPT-W, Archive file not created for single-point calculation.
  @CHECKOUT-I, Total execution time (CPU/WALL):        0.72/       0.68 seconds.
--executable xjoda finished with status     0 in        0.72 seconds (walltime).
 --invoking executable--
/usr/local/cfour/bin/xvmol
 Serial version of molecule started
********************************************************************************
                    Input from MOL file
********************************************************************************
INTGRL        1    0    1    0    0    0    0    0    0                         
         *** CFOUR Program System (Release V0.1) ***                            
test HF/cc-pVQZ energy                                                          
    4    0            0.10E-08              0    0                              
   9999.00      3.00                                                            
          7.00000000    1    5    1    1    1    1    1                         
N #1   1.214171296190524  -0.000000000000001   1.192911903543903                
   12    5                                                                      
   45840.000000000000        9.2000000000000000E-005  -2.0000000000000002E-005  
   6868.0000000000000        7.1699999999999997E-004  -1.5899999999999999E-004  
   1563.0000000000000        3.7490000000000002E-003  -8.2399999999999997E-004  
   442.39999999999998        1.5532000000000001E-002  -3.4780000000000002E-003  
   144.30000000000001        5.3145999999999999E-002  -1.1965999999999999E-002  
   52.180000000000000       0.14678700000000000       -3.5388000000000003E-002  
   20.340000000000000       0.30466300000000002       -8.0076999999999995E-002  
   8.3810000000000002       0.39768399999999998      -0.14672199999999999       
   3.5289999999999999       0.21764100000000000      -0.11636000000000001       
   1.0540000000000000        0.0000000000000000        9.0000000000000002E-006  
  0.41180000000000000       -0.0000000000000000        0.0000000000000000       
  0.15520000000000000        0.0000000000000000        0.0000000000000000       
    6    4                                                                      
   49.329999999999998        5.5329999999999997E-003   0.0000000000000000       
   11.369999999999999        3.7962000000000003E-002   0.0000000000000000       
   3.4350000000000001       0.14902799999999999        0.0000000000000000       
   1.1819999999999999        0.0000000000000000        1.0000000000000000       
  0.41730000000000000        0.0000000000000000        0.0000000000000000       
  0.14280000000000001        0.0000000000000000        0.0000000000000000       
    3    3                                                                      
   2.8370000000000002        1.0000000000000000        0.0000000000000000       
  0.96799999999999997        0.0000000000000000        1.0000000000000000       
  0.33500000000000002        0.0000000000000000        0.0000000000000000       
    2    2                                                                      
   2.0270000000000001        1.0000000000000000        0.0000000000000000       
  0.68500000000000005        0.0000000000000000        1.0000000000000000       
    1    1                                                                      
   1.4270000000000000        1.0000000000000000                                 
          7.00000000    1    5    1    1    1    1    1                         
N #2  -1.390270301014354   0.802336726367047   0.582123227501401                
   12    5                                                                      
   45840.000000000000        9.2000000000000000E-005  -2.0000000000000002E-005  
   6868.0000000000000        7.1699999999999997E-004  -1.5899999999999999E-004  
   1563.0000000000000        3.7490000000000002E-003  -8.2399999999999997E-004  
   442.39999999999998        1.5532000000000001E-002  -3.4780000000000002E-003  
   144.30000000000001        5.3145999999999999E-002  -1.1965999999999999E-002  
   52.180000000000000       0.14678700000000000       -3.5388000000000003E-002  
   20.340000000000000       0.30466300000000002       -8.0076999999999995E-002  
   8.3810000000000002       0.39768399999999998      -0.14672199999999999       
   3.5289999999999999       0.21764100000000000      -0.11636000000000001       
   1.0540000000000000        0.0000000000000000        9.0000000000000002E-006  
  0.41180000000000000       -0.0000000000000000        0.0000000000000000       
  0.15520000000000000        0.0000000000000000        0.0000000000000000       
    6    4                                                                      
   49.329999999999998        5.5329999999999997E-003   0.0000000000000000       
   11.369999999999999        3.7962000000000003E-002   0.0000000000000000       
   3.4350000000000001       0.14902799999999999        0.0000000000000000       
   1.1819999999999999        0.0000000000000000        1.0000000000000000       
  0.41730000000000000        0.0000000000000000        0.0000000000000000       
  0.14280000000000001        0.0000000000000000        0.0000000000000000       
    3    3                                                                      
   2.8370000000000002        1.0000000000000000        0.0000000000000000       
  0.96799999999999997        0.0000000000000000        1.0000000000000000       
  0.33500000000000002        0.0000000000000000        0.0000000000000000       
    2    2                                                                      
   2.0270000000000001        1.0000000000000000        0.0000000000000000       
  0.68500000000000005        0.0000000000000000        1.0000000000000000       
    1    1                                                                      
   1.4270000000000000        1.0000000000000000                                 
          7.00000000    1    5    1    1    1    1    1                         
N #3   0.580822770220657   0.802336726367085  -1.377397829863988                
   12    5                                                                      
   45840.000000000000        9.2000000000000000E-005  -2.0000000000000002E-005  
   6868.0000000000000        7.1699999999999997E-004  -1.5899999999999999E-004  
   1563.0000000000000        3.7490000000000002E-003  -8.2399999999999997E-004  
   442.39999999999998        1.5532000000000001E-002  -3.4780000000000002E-003  
   144.30000000000001        5.3145999999999999E-002  -1.1965999999999999E-002  
   52.180000000000000       0.14678700000000000       -3.5388000000000003E-002  
   20.340000000000000       0.30466300000000002       -8.0076999999999995E-002  
   8.3810000000000002       0.39768399999999998      -0.14672199999999999       
   3.5289999999999999       0.21764100000000000      -0.11636000000000001       
   1.0540000000000000        0.0000000000000000        9.0000000000000002E-006  
  0.41180000000000000       -0.0000000000000000        0.0000000000000000       
  0.15520000000000000        0.0000000000000000        0.0000000000000000       
    6    4                                                                      
   49.329999999999998        5.5329999999999997E-003   0.0000000000000000       
   11.369999999999999        3.7962000000000003E-002   0.0000000000000000       
   3.4350000000000001       0.14902799999999999        0.0000000000000000       
   1.1819999999999999        0.0000000000000000        1.0000000000000000       
  0.41730000000000000        0.0000000000000000        0.0000000000000000       
  0.14280000000000001        0.0000000000000000        0.0000000000000000       
    3    3                                                                      
   2.8370000000000002        1.0000000000000000        0.0000000000000000       
  0.96799999999999997        0.0000000000000000        1.0000000000000000       
  0.33500000000000002        0.0000000000000000        0.0000000000000000       
    2    2                                                                      
   2.0270000000000001        1.0000000000000000        0.0000000000000000       
  0.68500000000000005        0.0000000000000000        1.0000000000000000       
    1    1                                                                      
   1.4270000000000000        1.0000000000000000                                 
          7.00000000    1    5    1    1    1    1    1                         
N #4  -0.404723765396827  -1.604673452734131  -0.397637301181317                
   12    5                                                                      
   45840.000000000000        9.2000000000000000E-005  -2.0000000000000002E-005  
   6868.0000000000000        7.1699999999999997E-004  -1.5899999999999999E-004  
   1563.0000000000000        3.7490000000000002E-003  -8.2399999999999997E-004  
   442.39999999999998        1.5532000000000001E-002  -3.4780000000000002E-003  
   144.30000000000001        5.3145999999999999E-002  -1.1965999999999999E-002  
   52.180000000000000       0.14678700000000000       -3.5388000000000003E-002  
   20.340000000000000       0.30466300000000002       -8.0076999999999995E-002  
   8.3810000000000002       0.39768399999999998      -0.14672199999999999       
   3.5289999999999999       0.21764100000000000      -0.11636000000000001       
   1.0540000000000000        0.0000000000000000        9.0000000000000002E-006  
  0.41180000000000000       -0.0000000000000000        0.0000000000000000       
  0.15520000000000000        0.0000000000000000        0.0000000000000000       
    6    4                                                                      
   49.329999999999998        5.5329999999999997E-003   0.0000000000000000       
   11.369999999999999        3.7962000000000003E-002   0.0000000000000000       
   3.4350000000000001       0.14902799999999999        0.0000000000000000       
   1.1819999999999999        0.0000000000000000        1.0000000000000000       
  0.41730000000000000        0.0000000000000000        0.0000000000000000       
  0.14280000000000001        0.0000000000000000        0.0000000000000000       
    3    3                                                                      
   2.8370000000000002        1.0000000000000000        0.0000000000000000       
  0.96799999999999997        0.0000000000000000        1.0000000000000000       
  0.33500000000000002        0.0000000000000000        0.0000000000000000       
    2    2                                                                      
   2.0270000000000001        1.0000000000000000        0.0000000000000000       
  0.68500000000000005        0.0000000000000000        1.0000000000000000       
    1    1                                                                      
   1.4270000000000000        1.0000000000000000                                 
FINISH                                                                          

********************************************************************************
 One- and two-electron integrals over symmetry-adapted AOs are calculated.

  Spherical harmonics are used.
  
  Integrals less than  0.10E-13 are neglected.

   Basis function not normalized: 
   Center (as ordered in MOL file):   1
   Angular Momentum type          : s
   Offset within angular momentum :  1
   <chi|chi>                      :    1.0077242778
   Basis function not normalized: 
   Center (as ordered in MOL file):   1
   Angular Momentum type          : s
   Offset within angular momentum :  2
   <chi|chi>                      :    2.8669746502
   Basis function not normalized: 
   Center (as ordered in MOL file):   1
   Angular Momentum type          : p
   Offset within angular momentum :  1
   <chi|chi>                      :    5.6255372074
   Basis function not normalized: 
   Center (as ordered in MOL file):   2
   Angular Momentum type          : s
   Offset within angular momentum :  1
   <chi|chi>                      :    1.0077242778
   Basis function not normalized: 
   Center (as ordered in MOL file):   2
   Angular Momentum type          : s
   Offset within angular momentum :  2
   <chi|chi>                      :    2.8669746502
   Basis function not normalized: 
   Center (as ordered in MOL file):   2
   Angular Momentum type          : p
   Offset within angular momentum :  1
   <chi|chi>                      :    5.6255372074
   Basis function not normalized: 
   Center (as ordered in MOL file):   3
   Angular Momentum type          : s
   Offset within angular momentum :  1
   <chi|chi>                      :    1.0077242778
   Basis function not normalized: 
   Center (as ordered in MOL file):   3
   Angular Momentum type          : s
   Offset within angular momentum :  2
   <chi|chi>                      :    2.8669746502
   Basis function not normalized: 
   Center (as ordered in MOL file):   3
   Angular Momentum type          : p
   Offset within angular momentum :  1
   <chi|chi>                      :    5.6255372074
   Basis function not normalized: 
   Center (as ordered in MOL file):   4
   Angular Momentum type          : s
   Offset within angular momentum :  1
   <chi|chi>                      :    1.0077242778
   Basis function not normalized: 
   Center (as ordered in MOL file):   4
   Angular Momentum type          : s
   Offset within angular momentum :  2
   <chi|chi>                      :    2.8669746502
   Basis function not normalized: 
   Center (as ordered in MOL file):   4
   Angular Momentum type          : p
   Offset within angular momentum :  1
   <chi|chi>                      :    5.6255372074
  Nuclear repulsion energy :  105.7779183141 a.u.
  required memory for a1 array               5170032  words 
  required memory for a2 array               2330099  words 
 @GETMEM-I,  Allocated      72 MB of main memory.
  @MOLECU-I, One electron integrals (CPU/WALL):        0.97/       0.71 seconds.
  @TWOEL-I,  284313258 integrals of symmetry type  I I I I
  @TWOEL-I, Total number of 2-e integrals  284313258.
  @MOLECU-I, Two electron integrals (CPU/WALL):      642.36/     448.98 seconds.
  @CHECKOUT-I, Total execution time (CPU/WALL):      644.09/     450.49 seconds.
--executable xvmol finished with status     0 in      450.63 seconds (walltime).
 --invoking executable--
/usr/local/cfour/bin/xvmol2ja
 @GETMEM-I,  Allocated     762 MB of main memory.
  @CHECKOUT-I, Total execution time (CPU/WALL):        0.11/       0.07 seconds.
--executable xvmol2ja finished with status     0 in        0.43 seconds (walltime).
 --invoking executable--
/usr/local/cfour/bin/xvscf
  There are  220 functions in the AO basis.

  There are 1 irreducible representations.

       Irrep        # of functions
         1                220


  Parameters for SCF calculation: 
        SCF reference function:  RHF  
  Maximum number of iterations:  150
     Full symmetry point group: C1  
     Computational point group: C1  
        Initial density matrix: MOREAD                 
     SCF convergence tolerance: 10**(- 9)
  DIIS convergence acceleration:  ON
          Latest start for DIIS:   8
                     DIIS order:   6

  Memory information:    2974667 words required.
  Fock matrices are constructed from AO integral file.
 @GETMEM-I,  Allocated      22 MB of main memory.
  Initialization and symmetry analysis required      0.018 seconds.

  @INITGES-I, Occupancies from core Hamiltonian:

          Alpha population by irrep:  14
           Beta population by irrep:  14


 total no. of electrons in initial guess :   0.0000000000000000     
  --------------------------------------------------------------------
  Iteration         Total Energy            Largest Density Difference
  --------------------------------------------------------------------
       0           105.777918314137395              0.0000000000D+00
       1          -188.225587576570462              0.3145921708D+01
       2          -187.074460891771338              0.1671766359D+03
       3          -201.714860371825722              0.1669222519D+03
       4          -191.740041255418674              0.7494935050D+02
       5          -199.228590744484933              0.7497070807D+02
       6          -182.680885857904087              0.6430782788D+01
       7          -196.607951985449546              0.6432291737D+01
       8          -180.572279438200070              0.4612133216D+01
       9          -215.859710078758354              0.4019872211D+01
      10          -217.258264043385367              0.4554700961D+00
      11          -217.538906164350493              0.1480776519D+00
      12          -217.595205560399990              0.5687208442D-01
      13          -217.605621734347636              0.5438563130D-01
      14          -217.606274088666424              0.1038688850D-01
      15          -217.606445398945226              0.3105197384D-02
      16          -217.606487763092190              0.1261571261D-02
      17          -217.606493136537921              0.3065298674D-03
      18          -217.606495981731911              0.2915735740D-03
      19          -217.606496558786802              0.1459305133D-03
      20          -217.606496620453555              0.4619782036D-04
      21          -217.606496633588250              0.2554948415D-04
      22          -217.606496634612284              0.6316139156D-05
      23          -217.606496634767183              0.2642103500D-05
      24          -217.606496634789409              0.9465993716D-06
      25          -217.606496634801573              0.6515751135D-06
      26          -217.606496634803676              0.2308442727D-06
      27          -217.606496634800834              0.1250422685D-06
      28          -217.606496634806348              0.7669879890D-07
      29          -217.606496634800607              0.6144616213D-07
      30          -217.606496634800095              0.2736381338D-07
      31          -217.606496634807030              0.9385542649D-08
      32          -217.606496634804984              0.3946317051D-08
      33          -217.606496634804188              0.2437753680D-08

  SCF has converged.

 Density matrix saved to file den.dat
 total electron number:   28.000000000000433     
     E(SCF)=      -217.606496634805154              0.9956007130D-09

  Eigenvector printing suppressed.

 @PUTMOS-I, Writing converged MOs to NEWMOS. 
 @PUTMOS-I, Symmetry   1 Full Blocks 55 Partial Blocksize   0



  ORBITAL EIGENVALUES (ALPHA)  (1H = 27.2113838 eV)

       MO #        E(hartree)               E(eV)           FULLSYM    COMPSYM
       ----   --------------------   --------------------   -------   ---------
    1     1         -15.7486586191        -428.5427943285       A         A (1)
    2     2         -15.7477364494        -428.5177008141       A         A (1)
    3     3         -15.7477222280        -428.5173138312       A         A (1)
    4     4         -15.7476958933        -428.5165972255       A         A (1)
    5     5          -1.6517934435         -44.9475853813       A         A (1)
    6     6          -1.0440408937         -28.4097974811       A         A (1)
    7     7          -1.0406740752         -28.3181816915       A         A (1)
    8     8          -1.0373564955         -28.2279057559       A         A (1)
    9     9          -0.6858814421         -18.6637831749       A         A (1)
   10    10          -0.5701814758         -15.5154269854       A         A (1)
   11    11          -0.5690422949         -15.4844282953       A         A (1)
   12    12          -0.5678410865         -15.4517417530       A         A (1)
   13    13          -0.5338562622         -14.5269676550       A         A (1)
   14    14          -0.5285938477         -14.3837700756       A         A (1)
  +++++++++++++++++++++++++++++++++++++++++++++++++++++++++++++++++++++++++++++
   15    15           0.1878385278           5.1113462754       A         A (1)
   16    16           0.1905024159           5.1838343589       A         A (1)
   17    17           0.1913943866           5.2081061140       A         A (1)
   18    18           0.1928384611           5.2474013803       A         A (1)
   19    19           0.1937506722           5.2722239078       A         A (1)
   20    20           0.1960165904           5.3338826761       A         A (1)
   21    21           0.3514990722           9.5647761646       A         A (1)
   22    22           0.4137247174          11.2580220805       A         A (1)
   23    23           0.4151715805          11.2973932284       A         A (1)
   24    24           0.4166149902          11.3366704025       A         A (1)
   25    25           0.4557676917          12.4020695911       A         A (1)
   26    26           0.4568915933          12.4326525087       A         A (1)
   27    27           0.5132562115          13.9664117692       A         A (1)
   28    28           0.5148161556          14.0088600075       A         A (1)
   29    29           0.5164397505          14.0530402698       A         A (1)
   30    30           0.5575805308          15.1725378329       A         A (1)
   31    31           0.5578387389          15.1795640350       A         A (1)
   32    32           0.5580275781          15.1847026098       A         A (1)
   33    33           0.5897341821          16.0474831814       A         A (1)
   34    34           0.7742161042          21.0674915700       A         A (1)
   35    35           0.7745246896          21.0758886070       A         A (1)
   36    36           0.7748061066          21.0835463536       A         A (1)
   37    37           0.9373143863          25.5056215245       A         A (1)
   38    38           0.9390624066          25.5531875770       A         A (1)
   39    39           0.9408769543          25.6025639302       A         A (1)
   40    40           1.1864804309          32.2857743994       A         A (1)
   41    41           1.1886717495          32.3454032109       A         A (1)
   42    42           1.2131594458          33.0117473148       A         A (1)
   43    43           1.2694468105          34.5434044000       A         A (1)
   44    44           1.2716235545          34.6026366165       A         A (1)
   45    45           1.2737837401          34.6614182545       A         A (1)
   46    46           1.3075580123          35.5804629380       A         A (1)
   47    47           1.3080588884          35.5940924719       A         A (1)
   48    48           1.3085345366          35.6070355171       A         A (1)
   49    49           1.3962737819          37.9945417965       A         A (1)
   50    50           1.3976103894          38.0309127351       A         A (1)
   51    51           1.4098692990          38.3644946314       A         A (1)
   52    52           1.4101719005          38.3727288371       A         A (1)
   53    53           1.4104542198          38.3804111354       A         A (1)
   54    54           1.4107196012          38.3876325296       A         A (1)
   55    55           1.4110083589          38.3954900274       A         A (1)
   56    56           1.4112583217          38.4022918610       A         A (1)
   57    57           2.1307479289          57.9805997153       A         A (1)
   58    58           2.1534101305          58.5972695807       A         A (1)
   59    59           2.1537347131          58.6061019248       A         A (1)
   60    60           2.1540085231          58.6135526716       A         A (1)
   61    61           2.2367799715          60.8658783248       A         A (1)
   62    62           2.2379103601          60.8966377628       A         A (1)
   63    63           2.2728982582          61.8487068872       A         A (1)
   64    64           2.3523734013          64.0113355111       A         A (1)
   65    65           2.3530348830          64.0293353425       A         A (1)
   66    66           2.3536808841          64.0469139253       A         A (1)
   67    67           2.5903517231          70.4870549659       A         A (1)
   68    68           2.5924895379          70.5452278630       A         A (1)
   69    69           2.5946090915          70.6029038510       A         A (1)
   70    70           2.7051711352          73.6114500581       A         A (1)
   71    71           2.7052908879          73.6147086937       A         A (1)
   72    72           2.7104614195          73.7554060129       A         A (1)
   73    73           2.7123503189          73.8068055812       A         A (1)
   74    74           2.7141226856          73.8550341299       A         A (1)
   75    75           2.8514816067          77.5927604553       A         A (1)
   76    76           2.8560909562          77.7181872322       A         A (1)
   77    77           2.8577759537          77.7640383476       A         A (1)
   78    78           2.8611412360          77.8556123339       A         A (1)
   79    79           2.9918829679          81.4132757830       A         A (1)
   80    80           2.9927235486          81.4361491469       A         A (1)
   81    81           2.9937599490          81.4643510365       A         A (1)
   82    82           3.0290315087          82.4241389844       A         A (1)
   83    83           3.0355353109          82.6011164425       A         A (1)
   84    84           3.0416631360          82.7678630430       A         A (1)
   85    85           3.0896756967          84.0743512618       A         A (1)
   86    86           3.1288981836          85.1416494050       A         A (1)
   87    87           3.1307082071          85.1909026497       A         A (1)
   88    88           3.1325249337          85.2403382959       A         A (1)
   89    89           3.1455333095          85.5943142022       A         A (1)
   90    90           3.1459609238          85.6059501799       A         A (1)
   91    91           3.1462924936          85.6149726522       A         A (1)
   92    92           3.2091161980          87.3244925854       A         A (1)
   93    93           3.2102226422          87.3546004634       A         A (1)
   94    94           3.2408447204          88.1878695877       A         A (1)
   95    95           3.2432065662          88.2521386788       A         A (1)
   96    96           3.2452428942          88.3075499829       A         A (1)
   97    97           3.4911414953          94.9987911980       A         A (1)
   98    98           3.4927786149          95.0433394874       A         A (1)
   99    99           3.4944300030          95.0882760423       A         A (1)
  100   100           3.5082412554          95.4640993321       A         A (1)
  101   101           3.8811077348         105.6103122175       A         A (1)
  102   102           3.8826402535         105.6520141712       A         A (1)
  103   103           3.8842032561         105.6945456345       A         A (1)
  104   104           4.0385704576         109.8950908036       A         A (1)
  105   105           4.0398073223         109.9287476052       A         A (1)
  106   106           4.0683773987         110.7061789176       A         A (1)
  107   107           4.1750484794         113.6088466396       A         A (1)
  108   108           4.1811636063         113.7752477048       A         A (1)
  109   109           4.1827742287         113.8190749678       A         A (1)
  110   110           4.1851312677         113.8832132601       A         A (1)
  111   111           4.1915617152         114.0581946351       A         A (1)
  112   112           4.2273940708         115.0332426163       A         A (1)
  113   113           4.2329934259         115.1856088169       A         A (1)
  114   114           4.2393648719         115.3589846806       A         A (1)
  115   115           5.0900865475         138.5082987194       A         A (1)
  116   116           5.0982785112         138.7312133876       A         A (1)
  117   117           5.1057660982         138.9349609902       A         A (1)
  118   118           5.6117660561         152.7039200593       A         A (1)
  119   119           5.6204354407         152.9398260092       A         A (1)
  120   120           5.6290845971         153.1751815253       A         A (1)
  121   121           6.0671883627         165.0965912431       A         A (1)
  122   122           6.4537487895         175.6154353870       A         A (1)
  123   123           6.4574036108         175.7148881311       A         A (1)
  124   124           6.4610104876         175.8130362412       A         A (1)
  125   125           6.5467251429         178.1454506245       A         A (1)
  126   126           6.7359367924         183.2941614422       A         A (1)
  127   127           6.7399485990         183.4033282512       A         A (1)
  128   128           6.7440268942         183.5143043069       A         A (1)
  129   129           6.9421999776         188.9068681434       A         A (1)
  130   130           6.9442702712         188.9632036960       A         A (1)
  131   131           6.9456140464         188.9997696805       A         A (1)
  132   132           7.0083256144         190.7062382265       A         A (1)
  133   133           7.0158178819         190.9101131931       A         A (1)
  134   134           7.1664403358         195.0087585973       A         A (1)
  135   135           7.1669341150         195.0221950117       A         A (1)
  136   136           7.1673584180         195.0337408839       A         A (1)
  137   137           7.3497422709         199.9966579075       A         A (1)
  138   138           7.3767328296         200.7311083610       A         A (1)
  139   139           7.7226717072         210.1445839384       A         A (1)
  140   140           7.7285530491         210.3046233884       A         A (1)
  141   141           7.7352738851         210.4875066383       A         A (1)
  142   142           8.0300971037         218.5100543978       A         A (1)
  143   143           8.0434951111         218.8746327183       A         A (1)
  144   144           8.0574200731         219.2535502047       A         A (1)
  145   145           8.2259599905         223.8397545865       A         A (1)
  146   146           8.2260664089         223.8426503790       A         A (1)
  147   147           8.2893737801         225.5653315538       A         A (1)
  148   148           8.2942556660         225.6981744262       A         A (1)
  149   149           8.2981719642         225.8047423195       A         A (1)
  150   150           8.4899092147         231.0221782335       A         A (1)
  151   151           8.4983919714         231.2530057836       A         A (1)
  152   152           8.5053120175         231.4413098126       A         A (1)
  153   153           8.5263392480         232.0134898544       A         A (1)
  154   154           8.5289871722         232.0855435344       A         A (1)
  155   155           8.5857527079         233.6302123144       A         A (1)
  156   156           8.5933684329         233.8374467298       A         A (1)
  157   157           8.5979608298         233.9624122047       A         A (1)
  158   158           8.6238075248         234.6657365427       A         A (1)
  159   159           8.6271579901         234.7569073394       A         A (1)
  160   160           8.6297779992         234.8282014148       A         A (1)
  161   161           8.7120553010         237.0670806530       A         A (1)
  162   162           8.8307630720         240.2972833719       A         A (1)
  163   163           8.9174180123         242.6552842136       A         A (1)
  164   164           8.9216798019         242.7712534038       A         A (1)
  165   165           8.9258769719         242.8854642085       A         A (1)
  166   166           8.9766144067         244.2661000218       A         A (1)
  167   167           8.9821316729         244.4162324688       A         A (1)
  168   168           8.9877558418         244.5692738882       A         A (1)
  169   169           9.0597455120         246.5282124340       A         A (1)
  170   170           9.0613927123         246.5730350334       A         A (1)
  171   171           9.0633422853         246.6260856134       A         A (1)
  172   172           9.1921171715         250.1302284685       A         A (1)
  173   173           9.1939389461         250.1798014759       A         A (1)
  174   174           9.1959726246         250.2351406833       A         A (1)
  175   175           9.2749501555         252.3842285876       A         A (1)
  176   176           9.2752670263         252.3928510829       A         A (1)
  177   177           9.2799401342         252.5200128155       A         A (1)
  178   178           9.2838274534         252.6257921494       A         A (1)
  179   179           9.2878342347         252.7348222125       A         A (1)
  180   180           9.3347965847         254.0127327445       A         A (1)
  181   181           9.3363381721         254.0546814696       A         A (1)
  182   182           9.3389190313         254.1249102211       A         A (1)
  183   183           9.3423669393         254.2187325680       A         A (1)
  184   184           9.3438921237         254.2602349455       A         A (1)
  185   185           9.3463890724         254.3281803773       A         A (1)
  186   186           9.3474374625         254.3567085210       A         A (1)
  187   187           9.3506781120         254.4448910784       A         A (1)
  188   188           9.3510909992         254.4561263114       A         A (1)
  189   189           9.5743921751         260.5324603154       A         A (1)
  190   190           9.6742941749         263.2509319775       A         A (1)
  191   191           9.6866687896         263.5876623670       A         A (1)
  192   192           9.6992681072         263.9305072341       A         A (1)
  193   193           9.8146252288         267.0695341457       A         A (1)
  194   194           9.8526475692         268.1041746455       A         A (1)
  195   195           9.8595058682         268.2907984512       A         A (1)
  196   196           9.8666401221         268.4849313725       A         A (1)
  197   197          10.4624022695         284.6964438294       A         A (1)
  198   198          10.4733106465         284.9932758638       A         A (1)
  199   199          10.4832729122         285.2643629001       A         A (1)
  200   200          10.7419048964         292.3020970905       A         A (1)
  201   201          10.7779352584         293.2825331000       A         A (1)
  202   202          10.7869567434         293.5280201890       A         A (1)
  203   203          10.8114920456         294.1956597156       A         A (1)
  204   204          10.8197497726         294.4203638932       A         A (1)
  205   205          10.8336581997         294.7988314419       A         A (1)
  206   206          11.3484524630         308.8070957289       A         A (1)
  207   207          11.3560140197         309.0128561510       A         A (1)
  208   208          11.3608223752         309.1436981579       A         A (1)
  209   209          11.3872888944         309.8638887709       A         A (1)
  210   210          11.4040037171         310.3187222259       A         A (1)
  211   211          11.8916800152         323.5890691539       A         A (1)
  212   212          11.9004333016         323.8272581900       A         A (1)
  213   213          11.9088867723         324.0572888257       A         A (1)
  214   214          12.7115456912         345.8987487444       A         A (1)
  215   215          12.7280083490         346.3467204438       A         A (1)
  216   216          12.7444592765         346.7943729467       A         A (1)
  217   217          30.7972446732         838.0356453881       A         A (1)
  218   218          32.8033781083         892.6253122834       A         A (1)
  219   219          32.8088225272         892.7734624567       A         A (1)
  220   220          32.8161573206         892.9730523359       A         A (1)


  VSCF finished.

  @CHECKOUT-I, Total execution time (CPU/WALL):      617.45/    2012.83 seconds.
--executable xvscf finished with status     0 in     2012.86 seconds (walltime).
  The final electronic energy is      -217.606496634805154 a.u. 
  This computation required                         2464.73 seconds (walltime).
