[Molden Format]                                                                 
[ATOMS] AU                                                                      
C        1    6        0.0000000000        0.0000000000        0.0000000000     
H        2    1        1.6813033065        0.0000000000        1.1888609692     
H        3    1       -1.6813033065        0.0000000000        1.1888609692     
H        4    1        0.0000000000       -1.6813033065       -1.1888609692     
H        5    1        0.0000000000        1.6813033065       -1.1888609692     
[Molden Format]                                                                 
[GTO]                                                                           
  1 0
d   3 1.00
   46.135374108083106        6.6788294544309193E-002                            
   20.268218225399441       0.23122499388298942                                 
   6.0945916652598555        5.0799591990022650                                 
d   1 1.00
   1.7693044883902429        1.0000000000000000                                 
d   1 1.00
  0.48622668729967589        1.0000000000000000                                 
d   1 1.00
  0.33390123157489604        1.0000000000000000                                 
d   1 1.00
  0.19249575927525764        1.0000000000000000                                 

  2 0
d   3 1.00
   3.1324842646299400        6.4545862745101906E-003                            
   1.5153893402149163       -7.0854768532677637E-002                            
  0.90028999344114136       0.22897857323582813                                 
d   1 1.00
  0.50616845104080932        1.0000000000000000                                 
d   1 1.00
  0.35861735452268051        1.0000000000000000                                 
d   1 1.00
   9.4800330788481782E-002   1.0000000000000000                                 

  3 0
d   3 1.00
   3.1324842646299400        6.4545862745101906E-003                            
   1.5153893402149163       -7.0854768532677637E-002                            
  0.90028999344114136       0.22897857323582813                                 
d   1 1.00
  0.50616845104080932        1.0000000000000000                                 
d   1 1.00
  0.35861735452268051        1.0000000000000000                                 
d   1 1.00
   9.4800330788481782E-002   1.0000000000000000                                 

  4 0
d   3 1.00
   3.1324842646299400        6.4545862745101906E-003                            
   1.5153893402149163       -7.0854768532677637E-002                            
  0.90028999344114136       0.22897857323582813                                 
d   1 1.00
  0.50616845104080932        1.0000000000000000                                 
d   1 1.00
  0.35861735452268051        1.0000000000000000                                 
d   1 1.00
   9.4800330788481782E-002   1.0000000000000000                                 

  5 0
d   3 1.00
   3.1324842646299400        6.4545862745101906E-003                            
   1.5153893402149163       -7.0854768532677637E-002                            
  0.90028999344114136       0.22897857323582813                                 
d   1 1.00
  0.50616845104080932        1.0000000000000000                                 
d   1 1.00
  0.35861735452268051        1.0000000000000000                                 
d   1 1.00
   9.4800330788481782E-002   1.0000000000000000                                 

                                                                                
[MO]
 Sym= A
 Ene=  -2.3154816201761044     
 Spin= Alpha
 Occup= 1.0
  1       -0.0000104256
  2       -0.0000104256
  3        0.0000208511
  4        0.0000625534
  5        0.0000000000
  6        0.0000000000
  7       -0.0001217155
  8       -0.0001217155
  9        0.0002434311
 10        0.0007302932
 11        0.0000000000
 12        0.0000000000
 13       -0.0016452881
 14       -0.0016452881
 15        0.0032905762
 16        0.0098717286
 17        0.0000000000
 18       -0.0000000000
 19        0.0014665588
 20        0.0014665588
 21       -0.0029331177
 22       -0.0087993530
 23       -0.0000000000
 24        0.0000000000
 25        0.0002574782
 26        0.0002574782
 27       -0.0005149565
 28       -0.0015448694
 29       -0.0000000000
 30       -0.0000000000
 31        0.1985050826
 32       -0.1984263448
 33       -0.0000787378
 34       -0.0002362133
 35        0.5617260715
 36        0.0003802635
 37       -0.4529845914
 38        0.4526641803
 39        0.0003204111
 40        0.0009612333
 41       -1.2811243954
 42       -0.0003436197
 43        0.1978731467
 44       -0.1980234893
 45        0.0001503425
 46        0.0004510276
 47        0.5601207397
 48        0.0002383478
 49       -0.0464714701
 50        0.0464772489
 51       -0.0000057789
 52       -0.0000173366
 53       -0.1312563829
 54        0.0001929562
 55        0.1985050826
 56       -0.1984263448
 57       -0.0000787378
 58       -0.0002362133
 59       -0.5617260715
 60       -0.0003802635
 61       -0.4529845914
 62        0.4526641803
 63        0.0003204111
 64        0.0009612333
 65        1.2811243954
 66        0.0003436197
 67        0.1978731467
 68       -0.1980234893
 69        0.0001503425
 70        0.0004510276
 71       -0.5601207397
 72       -0.0002383478
 73       -0.0464714701
 74        0.0464772489
 75       -0.0000057789
 76       -0.0000173366
 77        0.1312563829
 78       -0.0001929562
 79       -0.1984263448
 80        0.1985050826
 81       -0.0000787378
 82       -0.0002362133
 83        0.0003802635
 84        0.5617260715
 85        0.4526641803
 86       -0.4529845914
 87        0.0003204111
 88        0.0009612333
 89       -0.0003436197
 90       -1.2811243954
 91       -0.1980234893
 92        0.1978731467
 93        0.0001503425
 94        0.0004510276
 95        0.0002383478
 96        0.5601207398
 97        0.0464772489
 98       -0.0464714701
 99       -0.0000057789
100       -0.0000173366
101        0.0001929562
102       -0.1312563829
103       -0.1984263448
104        0.1985050826
105       -0.0000787378
106       -0.0002362133
107       -0.0003802635
108       -0.5617260715
109        0.4526641803
110       -0.4529845914
111        0.0003204111
112        0.0009612333
113        0.0003436197
114        1.2811243954
115       -0.1980234893
116        0.1978731467
117        0.0001503425
118        0.0004510276
119       -0.0002383478
120       -0.5601207398
121        0.0464772489
122       -0.0464714701
123       -0.0000057789
124       -0.0000173366
125       -0.0001929562
126        0.1312563829
 Sym= A
 Ene= -0.73709905085268668     
 Spin= Alpha
 Occup= 1.0
  1       -0.0007972653
  2        0.0007972653
  3        0.0000000000
  4        0.0000000000
  5        0.0012053243
  6       -0.0012053243
  7       -0.0087669123
  8        0.0087669123
  9        0.0000000000
 10        0.0000000000
 11        0.0132540227
 12       -0.0132540227
 13        0.2223793033
 14       -0.2223793033
 15        0.0000000000
 16        0.0000000000
 17       -0.3361982222
 18        0.3361982224
 19       -0.6405711262
 20        0.6405711262
 21       -0.0000000000
 22        0.0000000000
 23        0.9684303829
 24       -0.9684303834
 25        0.3379424148
 26       -0.3379424148
 27        0.0000000000
 28        0.0000000000
 29       -0.5109092320
 30        0.5109092323
 31       -0.0629539812
 32        0.0760703924
 33       -0.0131164112
 34        0.0138205337
 35        0.0998609645
 36       -0.1031219572
 37        0.2571886941
 38       -0.2354507174
 39       -0.0217379768
 40        0.0222486834
 41       -0.3396867082
 42        0.3604088542
 43       -0.3135471508
 44        0.1564281072
 45        0.1571190437
 46       -0.1638064514
 47        0.3321107352
 48       -0.3465041060
 49       -0.0860674921
 50        0.0212817048
 51        0.0647857873
 52       -0.0677586263
 53        0.0686583624
 54       -0.0766981537
 55       -0.0289975022
 56        0.0338309284
 57       -0.0048334263
 58       -0.0162739712
 59        0.0022142340
 60       -0.0999686262
 61        0.0113198588
 62       -0.0082219283
 63       -0.0030979305
 64       -0.0122114604
 65        0.2734766905
 66        0.3477086214
 67       -0.0885157001
 68        0.0436959052
 69        0.0448197949
 70        0.1556478322
 71       -0.0998415255
 72       -0.3316268428
 73        0.0259291330
 74       -0.0460222591
 75        0.0200931261
 76        0.0690233162
 77       -0.1664245798
 78       -0.0745832916
 79       -0.0760703925
 80        0.0629539812
 81        0.0131164112
 82       -0.0138205337
 83        0.1031219572
 84       -0.0998609645
 85        0.2354507174
 86       -0.2571886942
 87        0.0217379768
 88       -0.0222486834
 89       -0.3604088540
 90        0.3396867082
 91       -0.1564281072
 92        0.3135471509
 93       -0.1571190437
 94        0.1638064513
 95        0.3465041058
 96       -0.3321107352
 97       -0.0212817048
 98        0.0860674921
 99       -0.0647857873
100        0.0677586263
101        0.0766981536
102       -0.0686583623
103       -0.0338309284
104        0.0289975021
105        0.0048334263
106        0.0162739712
107        0.0999686262
108       -0.0022142340
109        0.0082219282
110       -0.0113198587
111        0.0030979305
112        0.0122114604
113       -0.3477086212
114       -0.2734766905
115       -0.0436959052
116        0.0885157000
117       -0.0448197949
118       -0.1556478322
119        0.3316268426
120        0.0998415254
121        0.0460222591
122       -0.0259291330
123       -0.0200931261
124       -0.0690233161
125        0.0745832915
126        0.1664245798
 Sym= A
 Ene= -0.73709905084957505     
 Spin= Alpha
 Occup= 1.0
  1        0.0008522930
  2       -0.0008522930
  3       -0.0000000000
  4        0.0000000000
  5        0.0011275034
  6       -0.0011275034
  7        0.0093720093
  8       -0.0093720093
  9       -0.0000000000
 10        0.0000000000
 11        0.0123982863
 12       -0.0123982863
 13       -0.2377280428
 14        0.2377280428
 15       -0.0000000000
 16        0.0000000000
 17       -0.3144918267
 18        0.3144918268
 19        0.6847836910
 20       -0.6847836910
 21        0.0000000000
 22        0.0000000000
 23        0.9059043742
 24       -0.9059043746
 25       -0.3612673826
 26        0.3612673826
 27       -0.0000000000
 28        0.0000000000
 29       -0.4779227462
 30        0.4779227464
 31        0.0332669604
 32       -0.0389872329
 33        0.0057202725
 34        0.0153871250
 35       -0.0044507868
 36       -0.0933036054
 37       -0.0285233333
 38        0.0239665684
 39        0.0045567649
 40        0.0107526259
 41        0.2967745258
 42        0.3244107860
 43        0.1096554942
 44       -0.0542414755
 45       -0.0554140187
 46       -0.1450536084
 47       -0.1222464615
 48       -0.3092219068
 49       -0.0202382513
 50        0.0447033464
 51       -0.0244650950
 52       -0.0646513473
 53       -0.1713812529
 54       -0.0696266184
 55        0.0650310640
 56       -0.0784995364
 57        0.0134684725
 58       -0.0127643499
 59        0.0999355737
 60       -0.0966745811
 61       -0.2585178248
 62        0.2365244947
 63        0.0219933301
 64       -0.0214826235
 65       -0.3587097415
 66        0.3379875957
 67        0.3201579517
 68       -0.1596952042
 69       -0.1604627475
 70        0.1537753399
 71        0.3395193773
 72       -0.3251260067
 73        0.0845273925
 74       -0.0182551857
 75       -0.0662722068
 76        0.0632993678
 77        0.0799272408
 78       -0.0718874495
 79        0.0389872329
 80       -0.0332669604
 81       -0.0057202725
 82       -0.0153871250
 83        0.0933036054
 84        0.0044507868
 85       -0.0239665683
 86        0.0285233333
 87       -0.0045567649
 88       -0.0107526259
 89       -0.3244107859
 90       -0.2967745258
 91        0.0542414755
 92       -0.1096554941
 93        0.0554140186
 94        0.1450536084
 95        0.3092219067
 96        0.1222464615
 97       -0.0447033464
 98        0.0202382514
 99        0.0244650950
100        0.0646513472
101        0.0696266184
102        0.1713812530
103        0.0784995364
104       -0.0650310640
105       -0.0134684725
106        0.0127643499
107        0.0966745810
108       -0.0999355738
109       -0.2365244948
110        0.2585178249
111       -0.0219933301
112        0.0214826235
113       -0.3379875956
114        0.3587097416
115        0.1596952042
116       -0.3201579518
117        0.1604627475
118       -0.1537753398
119        0.3251260066
120       -0.3395193773
121        0.0182551857
122       -0.0845273925
123        0.0662722068
124       -0.0632993678
125        0.0718874494
126       -0.0799272407
 Sym= A
 Ene= -0.73322906345509531     
 Spin= Alpha
 Occup= 1.0
  1       -0.0000000000
  2        0.0000000000
  3        0.0000000000
  4        0.0000000000
  5        0.0017205117
  6        0.0017205117
  7       -0.0000000000
  8        0.0000000000
  9        0.0000000000
 10        0.0000000000
 11        0.0188506304
 12        0.0188506304
 13        0.0000000000
 14       -0.0000000000
 15        0.0000000000
 16        0.0000000000
 17       -0.4530818425
 18       -0.4530818423
 19       -0.0000000000
 20        0.0000000000
 21       -0.0000000000
 22       -0.0000000000
 23        1.3213412064
 24        1.3213412057
 25        0.0000000000
 26       -0.0000000000
 27        0.0000000000
 28        0.0000000000
 29       -0.7038217413
 30       -0.7038217410
 31       -0.0238322423
 32        0.0298456402
 33       -0.0060133979
 34       -0.0180401936
 35        0.0656696975
 36        0.1415816868
 37        0.1689303937
 38       -0.1599059115
 39       -0.0090244822
 40       -0.0270734467
 41       -0.0291548783
 42       -0.4941996406
 43       -0.1547019067
 44        0.0822387529
 45        0.0724631537
 46        0.2173894611
 47        0.1451067432
 48        0.4801914373
 49       -0.0749175092
 50        0.0450977483
 51        0.0298197609
 52        0.0894592826
 53       -0.0660078772
 54        0.1037193276
 55        0.0238322423
 56       -0.0298456402
 57        0.0060133979
 58        0.0180401936
 59        0.0656696975
 60        0.1415816868
 61       -0.1689303937
 62        0.1599059115
 63        0.0090244822
 64        0.0270734467
 65       -0.0291548782
 66       -0.4941996406
 67        0.1547019067
 68       -0.0822387529
 69       -0.0724631537
 70       -0.2173894611
 71        0.1451067432
 72        0.4801914373
 73        0.0749175092
 74       -0.0450977483
 75       -0.0298197609
 76       -0.0894592826
 77       -0.0660078772
 78        0.1037193276
 79        0.0298456402
 80       -0.0238322423
 81       -0.0060133979
 82       -0.0180401936
 83        0.1415816869
 84        0.0656696974
 85       -0.1599059114
 86        0.1689303936
 87       -0.0090244822
 88       -0.0270734467
 89       -0.4941996409
 90       -0.0291548782
 91        0.0822387529
 92       -0.1547019066
 93        0.0724631537
 94        0.2173894612
 95        0.4801914375
 96        0.1451067431
 97        0.0450977483
 98       -0.0749175092
 99        0.0298197609
100        0.0894592827
101        0.1037193277
102       -0.0660078771
103       -0.0298456402
104        0.0238322423
105        0.0060133979
106        0.0180401936
107        0.1415816869
108        0.0656696975
109        0.1599059114
110       -0.1689303936
111        0.0090244822
112        0.0270734467
113       -0.4941996409
114       -0.0291548782
115       -0.0822387529
116        0.1547019066
117       -0.0724631537
118       -0.2173894612
119        0.4801914375
120        0.1451067431
121       -0.0450977483
122        0.0749175092
123       -0.0298197609
124       -0.0894592827
125        0.1037193277
126       -0.0660078771
 Sym= A
 Ene= -0.20843068981434906     
 Spin= Alpha
 Occup= 1.0
  1        0.0000000000
  2       -0.0000000000
  3        0.0000000000
  4        0.0000000000
  5        0.0045295524
  6        0.0045295524
  7        0.0000000000
  8       -0.0000000000
  9        0.0000000000
 10        0.0000000000
 11        0.0385341269
 12        0.0385341269
 13        0.0000000000
 14       -0.0000000000
 15        0.0000000000
 16        0.0000000000
 17        0.3226791234
 18        0.3226791235
 19       -0.0000000000
 20        0.0000000000
 21       -0.0000000000
 22       -0.0000000000
 23       -0.2594020722
 24       -0.2594020723
 25        0.0000000000
 26       -0.0000000000
 27        0.0000000000
 28        0.0000000000
 29        0.6078937283
 30        0.6078937284
 31        0.0006752601
 32       -0.0111275098
 33        0.0104522496
 34        0.0313567489
 35        0.0042337131
 36       -0.0124579243
 37       -0.0348101820
 38        0.0632942997
 39       -0.0284841177
 40       -0.0854523531
 41       -0.0528785293
 42        0.0858621591
 43        0.0526265682
 44       -0.0632258116
 45        0.0105992434
 46        0.0317977302
 47        0.0098872270
 48       -0.1539527800
 49        0.0379855000
 50       -0.0231722744
 51       -0.0148132256
 52       -0.0444396769
 53        0.1019443246
 54        0.0154541706
 55       -0.0006752601
 56        0.0111275098
 57       -0.0104522496
 58       -0.0313567489
 59        0.0042337131
 60       -0.0124579243
 61        0.0348101820
 62       -0.0632942997
 63        0.0284841177
 64        0.0854523531
 65       -0.0528785293
 66        0.0858621591
 67       -0.0526265682
 68        0.0632258116
 69       -0.0105992434
 70       -0.0317977302
 71        0.0098872270
 72       -0.1539527800
 73       -0.0379855000
 74        0.0231722744
 75        0.0148132256
 76        0.0444396769
 77        0.1019443246
 78        0.0154541706
 79       -0.0111275098
 80        0.0006752601
 81        0.0104522496
 82        0.0313567489
 83       -0.0124579243
 84        0.0042337131
 85        0.0632942997
 86       -0.0348101820
 87       -0.0284841177
 88       -0.0854523531
 89        0.0858621591
 90       -0.0528785294
 91       -0.0632258117
 92        0.0526265683
 93        0.0105992434
 94        0.0317977302
 95       -0.1539527799
 96        0.0098872269
 97       -0.0231722744
 98        0.0379855000
 99       -0.0148132256
100       -0.0444396769
101        0.0154541706
102        0.1019443246
103        0.0111275098
104       -0.0006752601
105       -0.0104522496
106       -0.0313567489
107       -0.0124579243
108        0.0042337131
109       -0.0632942997
110        0.0348101820
111        0.0284841177
112        0.0854523531
113        0.0858621591
114       -0.0528785294
115        0.0632258117
116       -0.0526265683
117       -0.0105992434
118       -0.0317977302
119       -0.1539527799
120        0.0098872270
121        0.0231722744
122       -0.0379855000
123        0.0148132256
124        0.0444396769
125        0.0154541706
126        0.1019443247
 Sym= A
 Ene=   7.0417682176023455E-002
 Spin= Alpha
 Occup= 0.0
  1       -0.0017004403
  2        0.0017004403
  3        0.0000000000
  4        0.0000000000
  5        0.0023893688
  6       -0.0023893688
  7       -0.0155355994
  8        0.0155355994
  9        0.0000000000
 10        0.0000000000
 11        0.0218298037
 12       -0.0218298037
 13       -0.1117076767
 14        0.1117076767
 15        0.0000000000
 16        0.0000000000
 17        0.1569657272
 18       -0.1569657272
 19        0.0748424086
 20       -0.0748424086
 21        0.0000000000
 22       -0.0000000000
 23       -0.1051645996
 24        0.1051645996
 25       -0.2260824491
 26        0.2260824491
 27        0.0000000000
 28        0.0000000000
 29        0.3176791164
 30       -0.3176791163
 31        0.0010165484
 32       -0.0169483941
 33        0.0159318457
 34       -0.0158569334
 35       -0.0126603642
 36        0.0126449257
 37       -0.0284568537
 38        0.0712286426
 39       -0.0427717889
 40        0.0425439331
 41        0.0706050858
 42       -0.0702793424
 43        0.0685904745
 44       -0.0814077166
 45        0.0128172422
 46       -0.0126923464
 47       -0.1060800069
 48        0.1056824189
 49       -0.0221057011
 50        0.0558559790
 51       -0.0337502779
 52        0.0336516068
 53        0.0540101211
 54       -0.0545326328
 55        0.0026421390
 56       -0.0085171618
 57        0.0058750228
 58        0.0174203775
 59       -0.0054088429
 60        0.0102097156
 61        0.0036996337
 62        0.0141517283
 63       -0.0178513620
 64       -0.0530046439
 65       -0.0437104562
 66       -0.0575855534
 67        0.0155430756
 68       -0.0252938626
 69        0.0097507870
 70        0.0290878941
 71        0.0336242050
 72        0.0900132233
 73       -0.0903309551
 74        0.0981103123
 75       -0.0077793572
 76       -0.0229042580
 77        0.2141387015
 78       -0.0516538958
 79        0.0169483941
 80       -0.0010165484
 81       -0.0159318457
 82        0.0158569334
 83       -0.0126449257
 84        0.0126603642
 85       -0.0712286426
 86        0.0284568537
 87        0.0427717889
 88       -0.0425439332
 89        0.0702793424
 90       -0.0706050858
 91        0.0814077166
 92       -0.0685904745
 93       -0.0128172422
 94        0.0126923464
 95       -0.1056824190
 96        0.1060800069
 97       -0.0558559790
 98        0.0221057011
 99        0.0337502779
100       -0.0336516068
101        0.0545326328
102       -0.0540101211
103        0.0085171618
104       -0.0026421390
105       -0.0058750228
106       -0.0174203775
107       -0.0102097156
108        0.0054088429
109       -0.0141517283
110       -0.0036996337
111        0.0178513620
112        0.0530046439
113        0.0575855534
114        0.0437104562
115        0.0252938626
116       -0.0155430756
117       -0.0097507870
118       -0.0290878941
119       -0.0900132233
120       -0.0336242050
121       -0.0981103123
122        0.0903309551
123        0.0077793572
124        0.0229042580
125        0.0516538958
126       -0.2141387015
 Sym= A
 Ene=   7.0417682176813226E-002
 Spin= Alpha
 Occup= 0.0
  1        0.0016895389
  2       -0.0016895389
  3       -0.0000000000
  4       -0.0000000000
  5        0.0024047857
  6       -0.0024047857
  7        0.0154360022
  8       -0.0154360022
  9       -0.0000000000
 10       -0.0000000000
 11        0.0219706554
 12       -0.0219706554
 13        0.1109915301
 14       -0.1109915301
 15       -0.0000000000
 16       -0.0000000000
 17        0.1579785114
 18       -0.1579785114
 19       -0.0743626015
 20        0.0743626015
 21       -0.0000000000
 22        0.0000000000
 23       -0.1058431493
 24        0.1058431493
 25        0.2246330574
 26       -0.2246330574
 27       -0.0000000000
 28        0.0000000000
 29        0.3197288657
 30       -0.3197288657
 31       -0.0026356556
 32        0.0084083330
 33       -0.0057726774
 34       -0.0175227230
 35       -0.0054903809
 36        0.0102912536
 37       -0.0038827328
 38       -0.0136939082
 39        0.0175766410
 40        0.0532793650
 41       -0.0432572578
 42       -0.0580387517
 43       -0.0151022518
 44        0.0247708054
 45       -0.0096685535
 46       -0.0291701275
 47        0.0329426383
 48        0.0906947900
 49        0.0901906488
 50       -0.0977530992
 51        0.0075624504
 52        0.0231211648
 53        0.2144905009
 54       -0.0520056951
 55       -0.0009995763
 56        0.0168939658
 57       -0.0158943895
 58        0.0159693019
 59       -0.0126954134
 60        0.0127108519
 61        0.0284812368
 62       -0.0711390978
 63        0.0426578610
 64       -0.0428857167
 65        0.0703254187
 66       -0.0706511621
 67       -0.0684919265
 68        0.0812467208
 69       -0.0127547943
 70        0.0128796900
 71       -0.1058659441
 72        0.1062635321
 73        0.0215251875
 74       -0.0552261298
 75        0.0337009424
 76       -0.0337996134
 77        0.0553884886
 78       -0.0548659769
 79       -0.0084083330
 80        0.0026356556
 81        0.0057726774
 82        0.0175227230
 83       -0.0102912536
 84        0.0054903809
 85        0.0136939082
 86        0.0038827328
 87       -0.0175766410
 88       -0.0532793650
 89        0.0580387517
 90        0.0432572578
 91       -0.0247708054
 92        0.0151022518
 93        0.0096685535
 94        0.0291701275
 95       -0.0906947901
 96       -0.0329426383
 97        0.0977530992
 98       -0.0901906487
 99       -0.0075624504
100       -0.0231211648
101        0.0520056951
102       -0.2144905009
103       -0.0168939658
104        0.0009995763
105        0.0158943895
106       -0.0159693019
107       -0.0127108519
108        0.0126954134
109        0.0711390978
110       -0.0284812368
111       -0.0426578610
112        0.0428857167
113        0.0706511621
114       -0.0703254187
115       -0.0812467208
116        0.0684919265
117        0.0127547943
118       -0.0128796900
119       -0.1062635321
120        0.1058659441
121        0.0552261298
122       -0.0215251875
123       -0.0337009424
124        0.0337996134
125        0.0548659769
126       -0.0553884886
 Sym= A
 Ene=  0.11732271798045443     
 Spin= Alpha
 Occup= 0.0
  1       -0.0005865580
  2       -0.0005865580
  3        0.0011731161
  4        0.0035193482
  5       -0.0000000000
  6       -0.0000000000
  7       -0.0052768216
  8       -0.0052768216
  9        0.0105536431
 10        0.0316609293
 11       -0.0000000000
 12       -0.0000000000
 13       -0.0352186584
 14       -0.0352186584
 15        0.0704373167
 16        0.2113119502
 17       -0.0000000000
 18       -0.0000000000
 19       -0.0000088898
 20       -0.0000088898
 21        0.0000177796
 22        0.0000533389
 23       -0.0000000000
 24        0.0000000000
 25       -0.0344197468
 26       -0.0344197468
 27        0.0688394936
 28        0.2065184809
 29       -0.0000000000
 30       -0.0000000000
 31        0.0137530878
 32        0.0007617521
 33       -0.0145148398
 34       -0.0435445195
 35       -0.0101199611
 36       -0.0284924843
 37       -0.0501580856
 38       -0.0023078051
 39        0.0524658907
 40        0.1573976721
 41        0.0319045268
 42        0.0995750424
 43        0.0442106281
 44        0.0033121820
 45       -0.0475228102
 46       -0.1425684304
 47       -0.0203155706
 48       -0.0781547077
 49       -0.0558730466
 50       -0.0334038739
 51        0.0892769206
 52        0.2678307617
 53        0.0010649381
 54        0.0328411468
 55        0.0137530878
 56        0.0007617521
 57       -0.0145148398
 58       -0.0435445195
 59        0.0101199611
 60        0.0284924843
 61       -0.0501580856
 62       -0.0023078051
 63        0.0524658907
 64        0.1573976721
 65       -0.0319045268
 66       -0.0995750424
 67        0.0442106281
 68        0.0033121820
 69       -0.0475228101
 70       -0.1425684304
 71        0.0203155706
 72        0.0781547077
 73       -0.0558730466
 74       -0.0334038739
 75        0.0892769206
 76        0.2678307617
 77       -0.0010649381
 78       -0.0328411468
 79        0.0007617521
 80        0.0137530878
 81       -0.0145148398
 82       -0.0435445195
 83       -0.0284924843
 84       -0.0101199611
 85       -0.0023078051
 86       -0.0501580856
 87        0.0524658907
 88        0.1573976721
 89        0.0995750424
 90        0.0319045268
 91        0.0033121820
 92        0.0442106281
 93       -0.0475228101
 94       -0.1425684304
 95       -0.0781547077
 96       -0.0203155706
 97       -0.0334038739
 98       -0.0558730466
 99        0.0892769206
100        0.2678307617
101        0.0328411468
102        0.0010649381
103        0.0007617521
104        0.0137530878
105       -0.0145148398
106       -0.0435445195
107        0.0284924843
108        0.0101199611
109       -0.0023078051
110       -0.0501580856
111        0.0524658907
112        0.1573976721
113       -0.0995750424
114       -0.0319045268
115        0.0033121820
116        0.0442106281
117       -0.0475228101
118       -0.1425684304
119        0.0781547077
120        0.0203155706
121       -0.0334038739
122       -0.0558730466
123        0.0892769206
124        0.2678307617
125       -0.0328411468
126       -0.0010649381
 Sym= A
 Ene=  0.13566529755855924     
 Spin= Alpha
 Occup= 0.0
  1       -0.0009023175
  2       -0.0009023175
  3        0.0018046350
  4       -0.0018046350
  5        0.0000000000
  6        0.0000000000
  7       -0.0083066539
  8       -0.0083066539
  9        0.0166133079
 10       -0.0166133079
 11        0.0000000000
 12        0.0000000000
 13       -0.0525712716
 14       -0.0525712715
 15        0.1051425431
 16       -0.1051425431
 17        0.0000000000
 18        0.0000000000
 19       -0.0086713269
 20       -0.0086713269
 21        0.0173426537
 22       -0.0173426537
 23        0.0000000000
 24       -0.0000000000
 25       -0.0431709563
 26       -0.0431709563
 27        0.0863419127
 28       -0.0863419127
 29        0.0000000000
 30        0.0000000000
 31        0.0268511853
 32        0.0014825606
 33       -0.0283337459
 34        0.0283337459
 35       -0.0179383265
 36        0.0179383265
 37       -0.0942982441
 38       -0.0052196235
 39        0.0995178676
 40       -0.0995178676
 41        0.0629880966
 42       -0.0629880966
 43        0.0789099490
 44        0.0112253000
 45       -0.0901352489
 46        0.0901352489
 47       -0.0478602743
 48        0.0478602743
 49       -0.1092297726
 50       -0.0611585655
 51        0.1703883380
 52       -0.1703883380
 53        0.0339914765
 54       -0.0339914765
 55        0.0268511853
 56        0.0014825606
 57       -0.0283337459
 58        0.0283337459
 59        0.0179383265
 60       -0.0179383265
 61       -0.0942982441
 62       -0.0052196235
 63        0.0995178676
 64       -0.0995178676
 65       -0.0629880966
 66        0.0629880966
 67        0.0789099490