 --invoking executable--
/usr/local/cfour/bin/xjoda


   *************************************************************************
         <<<     CCCCCC     CCCCCC   |||     CCCCCC     CCCCCC   >>>
       <<<      CCC        CCC       |||    CCC        CCC         >>>
      <<<      CCC        CCC        |||   CCC        CCC            >>>
    <<<        CCC        CCC        |||   CCC        CCC              >>>
      <<<      CCC        CCC        |||   CCC        CCC            >>>
       <<<      CCC        CCC       |||    CCC        CCC         >>>
         <<<     CCCCCC     CCCCCC   |||     CCCCCC     CCCCCC   >>>
   *************************************************************************

     ****************************************************************
     * CFOUR Coupled-Cluster techniques for Computational Chemistry *
     ****************************************************************


   Department of Chemistry                Institut fuer Physikalische Chemie
   University of Texas at Austin          Universitaet Mainz
   Austin, TX  78712, USA                 D-55099 Mainz, Germany

                       Version 2.00beta

                     kbob-G41MT-S2                                     
                     Вт. мая  5 22:57:42 KRAT 2015                
                     integer*8 version is running

********************************************************************************
*                          Input from ZMAT file                                *
********************************************************************************
CFOUR input file for CASINO with d-orbitals                                     
C       0.000000      0.000000      0.000000                                    
H       0.629118      0.629118      0.629118                                    
H      -0.629118     -0.629118      0.629118                                    
H       0.629118     -0.629118     -0.629118                                    
H      -0.629118      0.629118     -0.629118                                    
                                                                                
*CFOUR(CALC=HF                                                                  
SCF_CONV=10                                                                     
SYMMETRY=OFF                                                                    
BASIS=svp                                                                       
COORD=CARTESIAN)                                                                
                                                                                
********************************************************************************
    -------------------------------------------------------------------
                    CFOUR Control Parameters 
    -------------------------------------------------------------------
        External           Internal           Value            Units
          Name               Name
    -------------------------------------------------------------------
       ABCDTYPE             IABCDT         STANDARD     [  0]   ***   
       ANHARMONIC           IANHAR         OFF          [  0]   ***   
       ANH_ALGORIT          IANALG         STANDARD     [  0]   ***   
       ANH_DERIVAT          IANDER         SECOND       [  1]   ***   
       ANH_STEPSIZ          ICUBST             50000          x 10-6  
       ANH_SYMMETR          IANHSM         ABELIAN      [  0]   ***   
       AO_LADDERS           IAOLAD         SINGLEPASS   [  1]   ***   
       BASIS                IBASIS         svp          [ 28]   ***   
       BREIT                IBREIT         OFF          [  0]   ***   
       BRUCK_CONV           IBRTOL          10D-  4             ***   
       BRUECKNER            IBRKNR             OFF      [  0]   ***   
       BUFFERSIZE           IBUFFS            600               ***   
       CACHE_RECS           ICHREC             10               ***   
       CALCLEVEL            ICLLVL           SCF        [  0]   ***   
       CCORBOPT             ICCORB             OFF      [  0] x 0.01  
       CC_CONV              ICCCNV          10D-  7             ***   
       CC_EXPORDER          ICCEOR              0               ***   
       CC_EXTRAPOL          ICCEXT             DIIS     [  1]   ***   
       CC_MAXCYC            ICCCYC              0              cycles 
       CC_PROGRAM           ICCPRO         VCC          [  0]   ***   
       CHARGE               ICHRGE              0               ***   
       CHOLESKY             ICHOLE         OFF          [  0]   ***   
       CIS_CONV             ICISTL              5               ***   
       COMM_SIZE            IPSIZE            ***               ***   
       CONSTANT             ICONST         OLD          [  1]   ***   
       CONTINUUM            ICONTU         NONE         [  0]   ***   
       CONTRACTION          ICNTYP          GENERAL     [  1]   ***   
       COORDINATES          ICOORD         CARTESIAN    [  1]   ***   
       CPHF_CONVER          ICPHFT          10D- 16             ***   
       CPHF_MAXCYC          ICPHFC             64              cycles 
       CUBIC                ICUBIC         OFF          [  0]   ***   
       CURVILINEAR          ICURVY            OFF       [  0]   ***   
       DBOC                 IDBOC          OFF          [  0]   ***   
       DCT                  IDCT           OFF          [  0]   ***   
       DERIV_LEV            IDRLVL            ZERO      [  0]   ***   
       DIAG_MRCC            IEOMST          10D-  0             ***   
       DIFF_TYPE            IDIFTY         RELAXED      [  0]   ***   
       DIRECT               IDIRCT         OFF          [  0]   ***   
       DROPMO               IDRPMO      NONE         
       ECP                  IECP           OFF          [  0]   ***   
       EIGENVECTOR          IVEC                1               ***   
       EL_ANHARM            IELANH         OFF          [  0]   ***   
       EOMFOLLOW            IEOMSR         ENERGY       [  0]   ***   
       EOM_MRCC             IMRCCE         NEW          [  1]   ***   
       EOM_NONIT            EOMNON         OFF          [  0]   ***   
       EOM_NSING            IEOMSI          10D-  0             ***   
       EOM_NSTATES          IMRCCD         DAVIDSON     [  0]   ***   
       EOM_NTRIP            IEOMTR          10D-  0             ***   
       EOM_ORDER            IEXORD         ENERGY       [  0]   ***   
       ESTATE_CONV          IEXTOL          10D-  5             ***   
       ESTATE_DIAG          IEXDIG         ITERATIVE    [  0]   ***   
       ESTATE_LOCK          IESLOC         ON           [  1]   ***   
       ESTATE_MAXC          IEXMXC             20               ***   
       ESTATE_PROP          IEXPRP         OFF          [  0]   ***   
       EVAL_HESS            IRECAL              0            # of cyc.
       EXCITATION           IEXCIT              0               ***   
       EXCITE               IEXCIT         NONE         [  0]   ***   
       FCGRADNEW            IFCGNW         OFF          [  0]   ***   
       FC_FIELD             IFINFC              0             x 10-6  
       FD_CALTYPE           IFDCAL         GRADONLY     [  0]   ***   
       FD_PROJECT           IFDPRJ         OFF          [  1]   ***   
       FD_STEPSIZE          IDISFD              0            10-4 bohr
       FD_USEGROUP          IFDGRP         FULL         [  0]   ***   
       FILE_RECSIZ          IFLREC              4096           words  
       FINITE_PERT          IFIPER              0             x 10-6  
       FIXGEOM              IFIXGM         OFF          [  0]   ***   
       FOCK                 IFOCK          AO           [  1]   ***   
       FREQ_ALGORI          IVIALG         STANDARD     [  0]   ***   
       FROZEN_CORE          IFROCO         OFF          [  0]   ***   
       FROZEN_VIRT          IFROVI         OFF          [  0]   ***   
       GAMMA_ABCD           IGABCD         STORE        [  0]   ***   
       GAMMA_ABCI           IGABCI         STORE        [  0]   ***   
       GENBAS_1             IGNBS1              0               ***   
       GENBAS_2             IGNBS2              0               ***   
       GENBAS_3             IGNBS3              0               ***   
       GENBAS_4             IGNBS4              0               ***   
       GEO_CONV             ICONTL              5              H/bohr 
       GEO_MAXCYC           IOPTCY             50               ***   
       GEO_MAXSTEP          IMXSTP            300            millibohr
       GEO_METHOD           INR            SINGLE_POINT [  5]   ***   
       GIAO                 IGIAO          OFF          [  1]   ***   
       GIMIC                IGIMIC         OFF          [  0]   ***   
       GRID                 IGRID          OFF          [  0]   ***   
       GRID_ALGO            IGALGO         SERIAL       [  0]   ***   
       GUESS                IGUESS            MOREAD    [  0]   ***   
       HBAR                 IHBAR              OFF      [  0]   ***   
       HESS_TYPE            IHESTP         SCF          [  0]   ***   
       HF2_FILE             IHF2Fl         USE          [  1]   ***   
       HFSTABILITY          ISTABL         OFF          [  0]   ***   
       INCORE               INCORE             OFF      [  0]   ***   
       INPUT_MRCC           IMRCC          ON           [  1]   ***   
       INTEGRALS            INTTYP             VMOL     [  1]   ***   
       JODA_PRINT           IJPRNT              0               ***   
       LINDEP_TOL           ILINDP              8               ***   
       LINEQ_CONV           IZTACN          10D-  7           cycles  
       LINEQ_EXPOR          ILMAXD              5               ***   
       LINEQ_MAXCY          ILMAXC             50               ***   
       LINEQ_TYPE           ILTYPE         DIIS         [  1]   ***   
       LOCK_ORBOCC          ILOCOC             OFF      [  0]   ***   
       MEMORY_SIZE          IMEMSZ         100000000           words  
       MEM_UNIT             IMEMU          INTEGERWORDS [  0]   ***   
       MRCC                 IMRCCC         OFF          [  0]   ***   
       MULTIPLICTY          IMULTP              1               ***   
       NEGEVAL              IDIE             ABORT      [  0]   ***   
       NEWNORM              INEWNO         OFF          [  0]   ***   
       NON-HF               INONHF             OFF      [  0]   ***   
       NTOP_TAMP            ITOPT2             15               ***   
       NUC_MODEL            INUCMO         POINT        [  0]   ***   
       OCCUPATION           IOCCU   ESTIMATED BY SCF 
       OPEN-SHELL           IOPEN          SPIN-ORBITAL [  0]   ***   
       ORBITALS             IORBTP           STANDARD   [  0]   ***   
       PARALLEL             IPARAL         ON           [  1]   ***   
       PARA_INT             IPINTS         ON           [  1]   ***   
       PARA_PRINT           IPPRIN              0               ***   
       PERT_ORB             IPTORB         STANDARD     [  0]   ***   
       POINTS               IGRDFD              0               ***   
       PRINT                IPRNT               0               ***   
       PROPS                IPROPS             OFF      [  0]   ***   
       PROP_INTEGR          IINTYP         INTERNAL     [  0]   ***   
       PSI                  IPSI           OFF          [  0]   ***   
       QUARTIC              IQUART         OFF          [  0]   ***   
       RAMAN_INT            IRAMIN         OFF          [  0]   ***   
       RAMAN_ORB            IRAMRE         UNRELAXED    [  0]   ***   
       RDO                  IRDOFM             OFF      [  0]   ***   
       REFERENCE            IREFNC             RHF      [  0]   ***   
       RELATIVIST           IRELAT         OFF          [  0]   ***   
       RELAX_DENS           IRDENS             OFF      [  0]   ***   
       RESET_FLAGS          IRESET             OFF      [  0]   ***   
       RESTART_CC           ICCRES         OFF          [  0]   ***   
       ROT_EVEC             ROTVEC              0               ***   
       SAVE_INTS            ISVINT             OFF      [  0]   ***   
       SCALE_ON             ISTCRT              0               ***   
       SCF_CONV             ISCFCV          10D- 10             ***   
       SCF_DAMPING          IDAMP               0             x 10-3  
       SCF_EXPORDE          IRPPOR              6               ***   
       SCF_EXPSTAR          IRPPLS              8               ***   
       SCF_EXTRAPO          IRPP                ON      [  1]   ***   
       SCF_MAXCYC           ISCFCY            150              cycles 
       SCF_NOSTOP           ISCFST         OFF          [  0]   ***   
       SCF_PRINT            ISCFPR              0               ***   
       SD_FIELD             IFINSD              0             x 10-6  
       SEQUENCE             ISEQUE         OFF          [  0]   ***   
       SOPERT               IPERSO         OFF          [  0]   ***   
       SPHERICAL            IDFGHI             ON       [  1]   ***   
       SPINORBIT            ISOCAL         OFF          [  0]   ***   
       SPINROTATIO          ISRCON         OFF          [  0]   ***   
       SPIN_FLIP            ISPFLP         OFF          [  0]   ***   
       SPIN_ORBIT           ISPORB         OFF          [  0]   ***   
       SPIN_SCAL            ISCSMP         OFF          [  0]   ***   
       SUBGROUP             ISUBGP         DEFAULT      [  0]   ***   
       SUBGRPAXIS           ISBXYZ         X            [  0]   ***   
       SYMMETRY             ISYM            OFF         [  1]   ***   
       SYM_CHECK            ISYMCK         OVERRIDE     [  1]   ***   
       T3_EXTRAPOL          IT3EXT         OFF          [  0]   ***   
       TAMP_SUM             IEVERY              0               ***   
       TESTSUITE            ITESTS         OFF          [  0]   ***   
       THERMOCH             ITHERM         OFF          [  0]   ***   
       TOL_CHOLESK          ITOLCH          10D-  4             ***   
       TRANGRAD             IRESRM         OFF          [  0]   ***   
       TRANS_INV            ITRAIN         USE          [  0]   ***   
       TREAT_PERT           ITREAT         SIMULTANEOUS [  0]   ***   
       UIJ_THRESHO          IUIJTH              1               ***   
       UNITS                IUNITS         ANGSTROM     [  0]   ***   
       UNOS                 IUNOS          OFF          [  0]   ***   
       UPDATE_HESS          IHUPDT         ON           [  1]   ***   
       VIBPHASE             ISETPH         STANDARD     [  0]   ***   
       VIBRATION            IVIB              NO        [  0]   ***   
       VIB_ALGORIT          IGEALG         STANDARD     [  0]   ***   
       VNATORB              IVNORB         OFF          [  0]   ***   
       VTRAN                IVTRAN         FULL/PARTIAL [  0]   ***   
       XFIELD               IXEFLD              0             x 10-6  
       XFORM_TOL            IXFTOL          10D- 11             ***   
       YFIELD               IYEFLD              0             x 10-6  
       ZFIELD               IZEFLD              0             x 10-6  
    -------------------------------------------------------------------
  @GETXYZ-I,     5 atoms read from ZMAT.
  1  C          6    12.00000
  2  H          1     1.00783
  3  H          1     1.00783
  4  H          1     1.00783
  5  H          1     1.00783
  1  C          6    12.00000
  2  H          1     1.00783
  3  H          1     1.00783
  4  H          1     1.00783
  5  H          1     1.00783
 factor:   60.199719999999999     
   Rotational constants (in cm-1): 
          5.2827152700             5.2827152700             5.2827152700
   Rotational constants (in MHz): 
     158371.8417567255        158371.8417567255        158371.8417567255
********************************************************************************
   The full molecular point group is T d .
   The largest Abelian subgroup of the full molecular point group is C2v .
   The computational point group is C1  .
********************************************************************************
 ----------------------------------------------------------------
 Z-matrix   Atomic            Coordinates (in bohr)
  Symbol    Number           X              Y              Z
 ----------------------------------------------------------------
     C         6         0.00000000     0.00000000     0.00000000
     H         1         1.68130331     0.00000000     1.18886097
     H         1        -1.68130331     0.00000000     1.18886097
     H         1         0.00000000    -1.68130331    -1.18886097
     H         1         0.00000000     1.68130331    -1.18886097
 ----------------------------------------------------------------
   Interatomic distance matrix (Angstroms) 

                 C             H             H             H             H    
                [ 1]        [ 2]        [ 3]        [ 4]        [ 5]
  C    [ 1]     0.00000
  H    [ 2]     1.08966     0.00000
  H    [ 3]     1.08966     1.77941     0.00000
  H    [ 4]     1.08966     1.77941     1.77941     0.00000
  H    [ 5]     1.08966     1.77941     1.77941     1.77941     0.00000
   Rotational constants (in cm-1): 
          5.2827152700             5.2827152700             5.2827152700
   Rotational constants (in MHz): 
     158371.8417567255        158371.8417567255        158371.8417567255
  There are  105 basis functions.
 @GEOPT-W, Archive file not created for single-point calculation.
  @CHECKOUT-I, Total execution time (CPU/WALL):        0.64/       1.02 seconds.
--executable xjoda finished with status     0 in        1.18 seconds (walltime).
 --invoking executable--
/usr/local/cfour/bin/xvmol
 Serial version of molecule started
********************************************************************************
                    Input from MOL file
********************************************************************************
INTGRL        1    0    1    0    0    0    0    0    0                         
         *** CFOUR Program System (Release V0.1) ***                            
CFOUR input file for CASINO with d-orbitals                                     
    5    0            0.10E-08              0    0                              
   9999.00      3.00                                                            
          6.00000000    1    3    0    0    5                                   
C #1   0.000000000000000   0.000000000000000   0.000000000000000                
    3    1                                                                      
   46.135374108083106        6.6788294544309193E-002                            
   20.268218225399441       0.23122499388298942                                 
   6.0945916652598555        5.0799591990022650                                 
    1    1                                                                      
   1.7693044883902429        1.0000000000000000                                 
    1    1                                                                      
  0.48622668729967589        1.0000000000000000                                 
    1    1                                                                      
  0.33390123157489604        1.0000000000000000                                 
    1    1                                                                      
  0.19249575927525764        1.0000000000000000                                 
          1.00000000    1    3    0    0    4                                   
H #2   1.681303306460232   0.000000000000000   1.188860969229394                
    3    1                                                                      
   3.1324842646299400        6.4545862745101906E-003                            
   1.5153893402149163       -7.0854768532677637E-002                            
  0.90028999344114136       0.22897857323582813                                 
    1    1                                                                      
  0.50616845104080932        1.0000000000000000                                 
    1    1                                                                      
  0.35861735452268051        1.0000000000000000                                 
    1    1                                                                      
   9.4800330788481782E-002   1.0000000000000000                                 
          1.00000000    1    3    0    0    4                                   
H #3  -1.681303306460232   0.000000000000000   1.188860969229394                
    3    1                                                                      
   3.1324842646299400        6.4545862745101906E-003                            
   1.5153893402149163       -7.0854768532677637E-002                            
  0.90028999344114136       0.22897857323582813                                 
    1    1                                                                      
  0.50616845104080932        1.0000000000000000                                 
    1    1                                                                      
  0.35861735452268051        1.0000000000000000                                 
    1    1                                                                      
   9.4800330788481782E-002   1.0000000000000000                                 
          1.00000000    1    3    0    0    4                                   
H #4   0.000000000000000  -1.681303306460232  -1.188860969229394                
    3    1                                                                      
   3.1324842646299400        6.4545862745101906E-003                            
   1.5153893402149163       -7.0854768532677637E-002                            
  0.90028999344114136       0.22897857323582813                                 
    1    1                                                                      
  0.50616845104080932        1.0000000000000000                                 
    1    1                                                                      
  0.35861735452268051        1.0000000000000000                                 
    1    1                                                                      
   9.4800330788481782E-002   1.0000000000000000                                 
          1.00000000    1    3    0    0    4                                   
H #5   0.000000000000000   1.681303306460232  -1.188860969229394                
    3    1                                                                      
   3.1324842646299400        6.4545862745101906E-003                            
   1.5153893402149163       -7.0854768532677637E-002                            
  0.90028999344114136       0.22897857323582813                                 
    1    1                                                                      
  0.50616845104080932        1.0000000000000000                                 
    1    1                                                                      
  0.35861735452268051        1.0000000000000000                                 
    1    1                                                                      
   9.4800330788481782E-002   1.0000000000000000                                 
FINISH                                                                          

********************************************************************************
 One- and two-electron integrals over symmetry-adapted AOs are calculated.

  Spherical harmonics are used.
  
  Integrals less than  0.10E-13 are neglected.

   Basis function not normalized: 
   Center (as ordered in MOL file):   1
   Angular Momentum type          : d
   Offset within angular momentum :  1
   <chi|chi>                      :    0.1913052149
   Basis function not normalized: 
   Center (as ordered in MOL file):   2
   Angular Momentum type          : d
   Offset within angular momentum :  1
   <chi|chi>                      :    5.8256838420
   Basis function not normalized: 
   Center (as ordered in MOL file):   3
   Angular Momentum type          : d
   Offset within angular momentum :  1
   <chi|chi>                      :    5.8256838420
   Basis function not normalized: 
   Center (as ordered in MOL file):   4
   Angular Momentum type          : d
   Offset within angular momentum :  1
   <chi|chi>                      :    5.8256838420
   Basis function not normalized: 
   Center (as ordered in MOL file):   5
   Angular Momentum type          : d
   Offset within angular momentum :  1
   <chi|chi>                      :    5.8256838420
  Nuclear repulsion energy :   13.4395250729 a.u.
  required memory for a1 array               5002754  words 
  required memory for a2 array               2004182  words 
 @GETMEM-I,  Allocated      68 MB of main memory.
  @MOLECU-I, One electron integrals (CPU/WALL):        0.38/       0.59 seconds.
  @TWOEL-I,   12867848 integrals of symmetry type  I I I I
  @TWOEL-I, Total number of 2-e integrals   12867848.
  @MOLECU-I, Two electron integrals (CPU/WALL):      190.43/     169.42 seconds.
  @CHECKOUT-I, Total execution time (CPU/WALL):      191.36/     170.68 seconds.
--executable xvmol finished with status     0 in      170.74 seconds (walltime).
 --invoking executable--
/usr/local/cfour/bin/xvmol2ja
 @GETMEM-I,  Allocated     762 MB of main memory.
  @CHECKOUT-I, Total execution time (CPU/WALL):        0.03/       0.05 seconds.
--executable xvmol2ja finished with status     0 in        0.13 seconds (walltime).
 --invoking executable--
/usr/local/cfour/bin/xvscf
  There are  105 functions in the AO basis.

  There are 1 irreducible representations.

       Irrep        # of functions
         1                105


  Parameters for SCF calculation: 
        SCF reference function:  RHF  
  Maximum number of iterations:  150
     Full symmetry point group: T d 
     Computational point group: C1  
        Initial density matrix: MOREAD                 
     SCF convergence tolerance: 10**(-10)
  DIIS convergence acceleration:  ON
          Latest start for DIIS:   8
                     DIIS order:   6

  Memory information:     650319 words required.
  Fock matrices are constructed from AO integral file.
 @GETMEM-I,  Allocated       4 MB of main memory.
  Initialization and symmetry analysis required      0.003 seconds.

  @INITGES-I, Occupancies from core Hamiltonian:

          Alpha population by irrep:   5
           Beta population by irrep:   5


 total no. of electrons in initial guess :   0.0000000000000000     
  --------------------------------------------------------------------
  Iteration         Total Energy            Largest Density Difference
  --------------------------------------------------------------------
       0            13.439525072866369              0.0000000000D+00
       1           -10.857790133712600              0.9928469756D+01
       2           -12.561158249793488              0.3621379728D+01
       3           -12.682380555106368              0.1008107601D+01
       4           -12.690343693658770              0.1252687285D+00
       5           -12.692383949809523              0.6743509272D-01
       6           -12.693712874916129              0.4779439296D-01
       7           -12.695069136609332              0.5518834116D-01
       8           -12.699435438529337              0.4133095546D+00
       9           -12.699670526178322              0.6187988064D-01
      10           -12.699726297646906              0.7908362723D-02
      11           -12.699732891812074              0.1870707046D-01
      12           -12.699734881051880              0.6856006039D-02
      13           -12.699734961851492              0.1415684945D-02
      14           -12.699734973500641              0.2395906509D-03
      15           -12.699734982042122              0.7639512847D-04
      16           -12.699734991153123              0.1154373715D-03
      17           -12.699734992696383              0.6375564399D-04
      18           -12.699734992856650              0.3051538870D-04
      19           -12.699734992928255              0.3017244055D-04
      20           -12.699734992935698              0.1286096822D-04
      21           -12.699734992936262              0.1965261820D-06
      22           -12.699734992936433              0.1286199514D-05
      23           -12.699734992936461              0.6468229428D-06
      24           -12.699734992936323              0.3078736484D-06
      25           -12.699734992936593              0.1117060706D-06
      26           -12.699734992936330              0.5206536446D-07
      27           -12.699734992936433              0.2828569428D-07
      28           -12.699734992936028              0.2222517725D-07
      29           -12.699734992936635              0.2394911824D-07
      30           -12.699734992936476              0.2714540148D-08
      31           -12.699734992936618              0.8856750888D-09
      32           -12.699734992936579              0.8919203154D-09
      33           -12.699734992936444              0.9601959228D-09
      34           -12.699734992936191              0.2077973349D-09
      35           -12.699734992936255              0.1516915482D-09

  SCF has converged.

 Density matrix saved to file den.dat
 total electron number:   10.000000000000083     
     E(SCF)=       -12.699734992937030              0.6947065145D-10

  Eigenvector printing suppressed.

 @PUTMOS-I, Writing converged MOs to NEWMOS. 
 @PUTMOS-I, Symmetry   1 Full Blocks 26 Partial Blocksize   1



  ORBITAL EIGENVALUES (ALPHA)  (1H = 27.2113838 eV)

       MO #        E(hartree)               E(eV)           FULLSYM    COMPSYM
       ----   --------------------   --------------------   -------   ---------
    1     1          -2.3154816202         -63.0074590938      A1         A (1)
    2     2          -0.7370990509         -20.0574851858       E         A (1)
    3     3          -0.7370990508         -20.0574851857       E         A (1)
    4     4          -0.7332290635         -19.9521774733                 A (1)
    5     5          -0.2084306898          -5.6716875003                 A (1)
  +++++++++++++++++++++++++++++++++++++++++++++++++++++++++++++++++++++++++++++
    6     6           0.0704176822           1.9161625774       E         A (1)
    7     7           0.0704176822           1.9161625774       E         A (1)
    8     8           0.1173227180           3.1925135097                 A (1)
    9     9           0.1356652976           3.6916404829                 A (1)
   10    10           0.2445663389           6.6549885175                 A (1)
   11    11           0.2586916153           7.0393568339                 A (1)
   12    12           0.2727390312           7.4216064594       E         A (1)
   13    13           0.2727390312           7.4216064594       E         A (1)
   14    14           0.2986587283           8.1269172867       E         A (1)
   15    15           0.2986587283           8.1269172868       E         A (1)
   16    16           0.2986930976           8.1278525222                 A (1)
   17    17           0.3110332567           8.4636453300                 A (1)
   18    18           0.3149195243           8.5693960476       E         A (1)
   19    19           0.3149195243           8.5693960476       E         A (1)
   20    20           0.3179985797           8.6531814069                 A (1)
   21    21           0.3323964856           9.0449683503                 A (1)
   22    22           0.3898831335          10.6092595907                 A (1)
   23    23           0.4020368675          10.9399795104       E         A (1)
   24    24           0.4020368675          10.9399795104       E         A (1)
   25    25           0.4372026804          11.8968899422       E         A (1)
   26    26           0.4372026804          11.8968899422       E         A (1)
   27    27           0.4414022514          12.0111660805                 A (1)
   28    28           0.4426276257          12.0445102118                 A (1)
   29    29           0.4433267326          12.0635338794                 A (1)
   30    30           0.7848206206          21.3560551369                 A (1)
   31    31           0.7940293670          21.6066378689       E         A (1)
   32    32           0.7940293670          21.6066378690       E         A (1)
   33    33           0.7959264980          21.6582614287                 A (1)
   34    34           0.7966035718          21.6766855442       E         A (1)
   35    35           0.7966035718          21.6766855442       E         A (1)
   36    36           0.8926298869          24.2896944611                 A (1)
   37    37           0.8994761945          24.4759919664                 A (1)
   38    38           0.9036577122          24.5897768480                 A (1)
   39    39           0.9038853135          24.5959701950       E         A (1)
   40    40           0.9038853135          24.5959701950       E         A (1)
   41    41           1.1283140830          30.7029875823       E         A (1)
   42    42           1.1283140830          30.7029875824       E         A (1)
   43    43           1.1314265146          30.7876811533                 A (1)
   44    44           1.1359141848          30.9097968684                 A (1)
   45    45           1.1360330016          30.9130300394                 A (1)
   46    46           1.1692683748          31.8174105361       E         A (1)
   47    47           1.1692683748          31.8174105361       E         A (1)
   48    48           1.1741084635          31.9491160455                 A (1)
   49    49           1.2089386399          32.8968933444      A1         A (1)
   50    50           1.2708117493          34.5805462724                 A (1)
   51    51           1.2732195335          34.6460654138                 A (1)
   52    52           1.6745128147          45.5658109121                 A (1)
   53    53           1.6825592477          45.7847654891       E         A (1)
   54    54           1.6825592477          45.7847654891       E         A (1)
   55    55           1.8517872521          50.3896936681                 A (1)
   56    56           1.8535915013          50.4387897866                 A (1)
   57    57           2.0983926222          57.1001670466                 A (1)
   58    58           2.0996233553          57.1336569963       E         A (1)
   59    59           2.0996233553          57.1336569964       E         A (1)
   60    60           2.1140306867          57.5257004228       E         A (1)
   61    61           2.1140306867          57.5257004228       E         A (1)
   62    62           2.1259519761          57.8500952041                 A (1)
   63    63           2.2108055273          60.1590777543                 A (1)
   64    64           2.2164211039          60.3118853630       E         A (1)
   65    65           2.2164211039          60.3118853631       E         A (1)
   66    66           2.3353250560          63.5474264423                 A (1)
   67    67           2.3361511800          63.5699064183                 A (1)
   68    68           2.3601420000          64.2227298303                 A (1)
   69    69           2.3606713240          64.2371334698       E         A (1)
   70    70           2.3606713240          64.2371334698       E         A (1)
   71    71           2.5971151992          70.6710985100                 A (1)
   72    72           2.6004062564          70.7606527304       E         A (1)
   73    73           2.6004062564          70.7606527305       E         A (1)
   74    74           2.6884160444          73.1555208517                 A (1)
   75    75           2.6899959092          73.1985111592                 A (1)
   76    76           4.1993626831         114.2704697673      A1         A (1)
   77    77           4.2192931969         114.8128066289       E         A (1)
   78    78           4.2192931969         114.8128066290       E         A (1)
   79    79           4.2195602446         114.8200733655                 A (1)
   80    80           4.3985283484         119.6900431309       E         A (1)
   81    81           4.3985283484         119.6900431310       E         A (1)
   82    82           4.4002464188         119.7367942028                 A (1)
   83    83           4.6237874748         125.8196556759                 A (1)
   84    84           4.6317457131         126.0362103543                 A (1)
   85    85           4.6787762658         127.3159767759       E         A (1)
   86    86           4.6787762658         127.3159767759       E         A (1)
   87    87           4.6890732344         127.5961715403                 A (1)
   88    88           4.7411212059         129.0124688683       E         A (1)
   89    89           4.7411212059         129.0124688684       E         A (1)
   90    90           4.7445769833         129.1065053541                 A (1)
   91    91           4.7754204390         129.9457984657                 A (1)
   92    92           4.7772790283         129.9963732535       E         A (1)
   93    93           4.7772790283         129.9963732535       E         A (1)
   94    94           5.0323661699         136.9376473706                 A (1)
   95    95           5.0408534768         137.1685987363                 A (1)
   96    96           5.3624818350         145.9205514386                 A (1)
   97    97           5.3656645611         146.0071578194                 A (1)
   98    98           5.4066353822         147.1220305589       E         A (1)
   99    99           5.4066353822         147.1220305589       E         A (1)
  100   100           5.4160420137         147.3779980179                 A (1)
  101   101          18.1964336087         495.1501390745                 A (1)
  102   102          18.1987218462         495.2124051828       E         A (1)
  103   103          18.1987218462         495.2124051829       E         A (1)
  104   104          18.2018511418         495.2975576477                 A (1)
  105   105          18.2065646697         495.4258192632                 A (1)


  VSCF finished.

  @CHECKOUT-I, Total execution time (CPU/WALL):       19.02/      21.04 seconds.
--executable xvscf finished with status     0 in       21.12 seconds (walltime).
  The final electronic energy is       -12.699734992937030 a.u. 
  This computation required                          193.29 seconds (walltime).
