Process 0 of 1 is on He - thread support 0
initial socket setup ...start
initial socket setup ...done 
now start server 0 ... 
He 127.0.1
Q-Chem Developer Version! Running on 127.0.1.*
                  Welcome to Q-Chem
     A Quantum Leap Into The Future Of Chemistry


 Q-Chem 4.4, Q-Chem, Inc., Pleasanton, CA (2016)

 Y. Shao,  Z. Gan,  E. Epifanovsky,  A. T. B. Gilbert,  M. Wormit,  
 J. Kussmann,  A. W. Lange,  A. Behn,  J. Deng,  X. Feng,  D. Ghosh,  
 M. Goldey,  P. R. Horn,  L. D. Jacobson,  I. Kaliman,  F.Rob,  
 R. Z. Khaliullin,  T. Kus,  A. Landau,  J. Liu,  E. I. Proynov,  Y. M. Rhee,  
 R. M. Richard,  M. A. Rohrdanz,  R. P. Steele,  E. J. Sundstrom,  
 H. L. Woodcock III,  P. M. Zimmerman,  D. Zuev,  B. Albrecht,  E. Alguire,  
 B. Austin,  S. A. Baeppler,  G. J. O. Beran,  Y. A. Bernard,  E. Berquist,  
 K. Brandhorst,  K. B. Bravaya,  S. T. Brown,  D. Casanova,  C.-M. Chang,  
 Y. Chen,  S. H. Chien,  K. D. Closser,  M. P. Coons,  D. L. Crittenden,  
 S. Dasgupta,  M. Diedenhofen,  R. A. DiStasio Jr.,  H. Do,  A. D. Dutoi,  
 R. G. Edgar,  P.-T. Fang,  S. Fatehi,  Q. Feng,  L. Fusti-Molnar,  
 A. Ghysels,  A. Golubeva-Zadorozhnaya,  J. Gomes,  A. Gunina,  
 M. W. D. Hanson-Heine,  P. H. P. Harbach,  A. W. Hauser,  J. E. Herr,  
 E. G. Hohenstein,  Z. C. Holden,  K. Hui,  T.-C. Jagau,  H. Ji,  B. Kaduk,  
 K. Khistyaev,  Jaehoon Kim,  Jihan Kim,  R. A. King,  P. Klunzinger,  
 K. Koh,  D. Kosenkov,  T. Kowalczyk,  C. M. Krauter,  A. Kunitsa,  
 K. U. Lao,  A. Laurent,  K. V. Lawler,  J. Lee,  D. Lefrancois,  S. Lehtola,  
 S. V. Levchenko,  C. Y. Lin,  Y.-S. Lin,  F. Liu,  E. Livshits,  
 R. C. Lochan,  A. Luenser,  P. Manohar,  S. F. Manzer,  S.-P. Mao,  Y. Mao,  
 N. Mardirossian,  A. V. Marenich,  L. A. Martinez-Martinez,  S. A. Maurer,  
 N. J. Mayhall,  J.-M. Mewes,  A. F. Morrison,  K. Nanda,  T. S. Nguyen-Beck,  
 C. M. Oana,  R. Olivares-Amaya,  D. P. O'Neill,  J. A. Parkhill,  
 T. M. Perrine,  R. Peverati,  P. A. Pieniazek,  F. Plasser,  A. Prociuk,  
 D. R. Rehn,  E. Rosta,  N. J. Russ,  N. Sergueev,  S. M. Sharada,  
 S. Sharma,  D. W. Small,  A. Sodt,  T. Stauch,  T. Stein,  D. Stuck,  
 Y.-C. Su,  A. J. W. Thom,  T. Tsuchimochi,  L. Vogt,  O. Vydrov,  T. Wang,  
 M. A. Watson,  J. Wenzel,  A. White,  C. F. Williams,  V. Vanovschi,  
 K. Yao,  S. Yeganeh,  S. R. Yost,  Z.-Q. You,  I. Y. Zhang,  X. Zhang,  
 Y. Zhao,  B. R. Brooks,  G. K. L. Chan,  D. M. Chipman,  C. J. Cramer,  
 W. A. Goddard III,  M. S. Gordon,  W. J. Hehre,  A. Klamt,  
 H. F. Schaefer III,  M. W. Schmidt,  C. D. Sherrill,  D. G. Truhlar,  
 A. Warshel,  X. Xu,  A. Aspuru-Guzik,  R. Baer,  A. T. Bell,  N. A. Besley,  
 J.-D. Chai,  A. Dreuw,  B. D. Dunietz,  T. R. Furlani,  S. R. Gwaltney,  
 C.-P. Hsu,  Y. Jung,  J. Kong,  D. S. Lambrecht,  W. Liang,  C. Ochsenfeld,  
 V. A. Rassolov,  L. V. Slipchenko,  J. E. Subotnik,  T. Van Voorhis,  
 J. M. Herbert,  A. I. Krylov,  P. M. W. Gill,  M. Head-Gordon

 Contributors to earlier versions of Q-Chem not listed above: 
 R. D. Adamson,  J. Baker,  E. F. C. Byrd,  A. K. Chakraborty,  C.-L. Cheng,  
 H. Dachsel,  R. J. Doerksen,  G. Hawkins,  A. Heyden,  S. Hirata,  
 G. Kedziora,  F. J. Keil,  C. Kelley,  P. P. Korambath,  W. Kurlancheek,  
 A. M. Lee,  M. S. Lee,  D. Liotard,  I. Lotan,  P. E. Maslen,  N. Nair,  
 D. Neuhauser,  R. Olson,  B. Peters,  J. Ritchie,  N. E. Schultz,  
 N. Shenvi,  A. C. Simmonett,  K. S. Thanthiriwatte,  Q. Wu,  W. Zhang

 Please cite Q-Chem as follows:
 Y. Shao et al., Mol. Phys. 113, 184-215 (2015)
 DOI: 10.1080/00268976.2014.952696

 Q-Chem 4.4.1 for Intel X86 EM64T Linux

 Parts of Q-Chem use Armadillo 5.200.1 (Boston Tea Smuggler).
 http://arma.sourceforge.net/

 Q-Chem begins on Wed May 17 06:19:42 2017  


Host: 0

     Scratch files written to /home/vladimir/scratch/qchem19883//
 Parallel job on  1  processors

Checking the input file for inconsistencies... 	...done.

--------------------------------------------------------------
User input:
--------------------------------------------------------------
$comment0
$end

$rem
SYMMETRY              false
SYM_IGNORE            true
BASIS                 cc-pVDZ
METHOD                HF
SCF_CONVERGENCE       8
MAX_SCF_CYCLES        100
MOLDEN_FORMAT         true
PRINT_ORBITALS        1000
$end

$molecule
   1 2
   N       0.5200      0.5300      0.5100
   N      -0.5200     -0.5200      0.5200
   N      -0.5200      0.5200     -0.5200
   N       0.5200     -0.5200     -0.5200
$end
--------------------------------------------------------------
 ----------------------------------------------------------------
             Standard Nuclear Orientation (Angstroms)
    I     Atom           X                Y                Z
 ----------------------------------------------------------------
    1      N       0.5200000000     0.5300000000     0.5100000000
    2      N      -0.5200000000    -0.5200000000     0.5200000000
    3      N      -0.5200000000     0.5200000000    -0.5200000000
    4      N       0.5200000000    -0.5200000000    -0.5200000000
 ----------------------------------------------------------------
 Nuclear Repulsion Energy =   105.7779404621 hartrees
 There are       14 alpha and       13 beta electrons
 Requested basis set is cc-pVDZ
 There are 24 shells and 56 basis functions

 Total QAlloc Memory Limit   2000 MB
 Mega-Array Size        61 MB
 MEM_STATIC part        62 MB

                       Distance Matrix (Angstroms)
             N (  1)   N (  2)   N (  3)
   N (  2)  1.477904
   N (  3)  1.463762  1.470782
   N (  4)  1.470850  1.470782  1.470782

 A cutoff of  1.0D-11 yielded    300 shell pairs
 There are      1660 function pairs (      1914 Cartesian)

 -------------------------------------------------------
 OpenMP Integral Computing Module                       
 Release: version 1.0, May 2013, Q-Chem Inc. Pittsburgh 
 -------------------------------------------------------
 Integral Job Info:
 Integral job number is                      11
 Integral operator is                         1
 short-range coefficients                     0
 long-range coefficients              100000000
 Omega coefficients                           0
 if combine SR and LR in K                    0
 Integral screening is                        0
 Integral computing path is                   2
 max size of driver memory is            800000
 size of driver memory is                593474
 size of scratch memory is              3179904
 max col of scratch BK array               1296
 max len of scratch array in speh3          155
 max len of scratch index in speh4           18
 max int batch size is                      520
 min int batch size is                       52
 fixed nKL is                                52
 max L of basis functions is                  2
 order of int derivative is                   0
 number of shells is                         24
 number of basis is                          60
 number of cartesian basis is                60
 number of contracted shell pairs           300
 number of primitive shell pairs           2316
 maxK2 (contraction) of shell pair           49
 max number of K2 of shell pair               1
 max number of CS2 of shell pair             32
 max number of PS2 of shell pair            588
 mem total for path MDJ                   22346
 -------------------------------------------------------
 Smallest overlap matrix eigenvalue = 1.03E-02

 Scale SEOQF with 1.000000e+00/1.000000e+00/1.000000e+00

 Standard Electronic Orientation quadrupole field applied
 Nucleus-field energy     =     0.0000000001 hartrees
 Guess from superposition of atomic densities
 Warning:  Energy on first SCF cycle will be non-variational
 An unrestricted Hartree-Fock SCF calculation will be
 performed using Pulay DIIS extrapolation
 SCF converges when DIIS error is below 1.0E-08
 using 12 threads for integral computing 
 ---------------------------------------
  Cycle       Energy         DIIS Error
 ---------------------------------------
    1    -218.4843369222      1.15E-01
    2    -216.8366774767      2.40E-02
    3    -217.0259728949      7.37E-03
    4    -217.0462331760      8.55E-04
    5    -217.0478478685      2.81E-04
    6    -217.0482432751      1.44E-04
    7    -217.0483199610      7.38E-05
    8    -217.0483845418      5.12E-05
    9    -217.0484349644      3.64E-05
   10    -217.0484565809      3.03E-05
   11    -217.0484654553      2.77E-05
   12    -217.0484729088      2.83E-05
   13    -217.0484590985      2.81E-05
   14    -217.0484257075      2.57E-05
   15    -217.0483265471      2.67E-05
   16    -217.0483267862      2.81E-05
   17    -217.0482943938      1.68E-05
   18    -217.0482823325      1.38E-05
   19    -217.0482753234      2.18E-05
   20    -217.0482804130      2.03E-05
   21    -217.0482802421      1.97E-05
   22    -217.0482829984      1.35E-05
   23    -217.0482845334      1.16E-05
   24    -217.0482860304      1.17E-05
   25    -217.0482871757      1.13E-05
   26    -217.0482893605      1.12E-05
   27    -217.0482910053      1.11E-05
   28    -217.0482940441      1.09E-05
   29    -217.0483006846      1.05E-05
   30    -217.0483069606      1.05E-05
   31    -217.0483085373      1.06E-05
   32    -217.0483047609      1.03E-05
   33    -217.0482988997      9.66E-06
   34    -217.0482951230      9.05E-06
   35    -217.0482894134      7.40E-06
   36    -217.0482865880      6.79E-06
   37    -217.0482865336      6.57E-06
   38    -217.0482868918      6.51E-06
   39    -217.0482875508      6.18E-06
   40    -217.0482922528      5.66E-06
   41    -217.0482951657      4.61E-06
   42    -217.0482956260      2.93E-06
   43    -217.0482966363      1.66E-06
   44    -217.0482968578      1.08E-06
   45    -217.0482969279      9.18E-07
   46    -217.0482970158      9.53E-07
   47    -217.0482970313      7.91E-07
   48    -217.0482970646      6.91E-07
   49    -217.0482970821      6.64E-07
   50    -217.0482971084      6.53E-07
   51    -217.0482971242      6.14E-07
   52    -217.0482971377      5.45E-07
   53    -217.0482971486      4.92E-07
   54    -217.0482971593      4.54E-07
   55    -217.0482971748      4.41E-07
   56    -217.0482971825      3.69E-07
   57    -217.0482971982      3.38E-07
   58    -217.0482972136      2.19E-07
   59    -217.0482972246      1.03E-07
   60    -217.0482972270      4.57E-08
   61    -217.0482972274      2.28E-08
   62    -217.0482972275      1.08E-08
   63    -217.0482972275      3.74E-09 Convergence criterion met
 ---------------------------------------
 <S^2> = 0.7841
 SCF time:  CPU 18.41 s  wall 2.75 s
 SCF   energy in the final basis set = -217.0482972275
 Total energy in the final basis set = -217.0482972275

 --------------------------------------------------------------

                    Orbital Energies (a.u.)
 --------------------------------------------------------------

 Alpha MOs
 -- Occupied --
-16.130 -16.129 -16.121 -16.120  -2.047  -1.427  -1.419  -1.405
 -1.021  -0.930  -0.920  -0.917  -0.906  -0.883
 -- Virtual --
 -0.173  -0.153  -0.139  -0.058  -0.053  -0.049   0.498   0.503
  0.511   0.582   0.604   0.623   0.649   0.650   0.652   0.759
  0.769   0.774   0.774   1.127   1.131   1.143   1.424   1.430
  1.438   1.546   1.563   1.970   1.973   1.977   1.992   1.994
  1.998   2.139   2.276   2.282   2.629   2.630   2.639   2.829
  2.842   2.851

 Beta MOs
 -- Occupied --
-16.119 -16.118 -16.114 -16.114  -2.015  -1.382  -1.353  -1.332
 -1.010  -0.906  -0.886  -0.882  -0.877
 -- Virtual --
 -0.444  -0.133  -0.098  -0.054  -0.051  -0.034  -0.024   0.504
  0.514   0.521   0.589   0.624   0.655   0.658   0.667   0.675
  0.777   0.782   0.786   0.797   1.155   1.166   1.176   1.440
  1.442   1.443   1.582   1.585   1.991   1.997   2.005   2.008
  2.013   2.016   2.151   2.289   2.307   2.639   2.641   2.643
  2.850   2.852   2.856
 --------------------------------------------------------------


                        ALPHA MOLECULAR ORBITAL COEFFICIENTS
                         1         2         3         4         5         6
 eigenvalues:        -16.130   -16.129   -16.121   -16.120    -2.047    -1.427
   1  N 1   s        0.03433   0.02300   0.95384  -0.28927  -0.09372   0.08618
   2  N 1   s        0.00098   0.00061   0.01498  -0.00419   0.20535  -0.20346
   3  N 1   s        0.00115   0.00066  -0.00543   0.00262   0.11167  -0.25805
   4  N 1   px      -0.00015  -0.00022  -0.00187   0.00037  -0.07556   0.09920
   5  N 1   py      -0.00027  -0.00003  -0.00188   0.00037  -0.07692   0.04971
   6  N 1   pz      -0.00030  -0.00017  -0.00163   0.00048  -0.07321  -0.13206
   7  N 1   px       0.00031  -0.00033   0.00156  -0.00073  -0.02444   0.05030
   8  N 1   py      -0.00011   0.00044   0.00155  -0.00072  -0.02547   0.03859
   9  N 1   pz      -0.00027  -0.00015   0.00167  -0.00012  -0.02276  -0.00857
  10  N 1   d 1     -0.00011  -0.00007   0.00001  -0.00031   0.01529  -0.01962
  11  N 1   d 2     -0.00032  -0.00000   0.00006  -0.00009   0.01483   0.01223
  12  N 1   d 3     -0.00007  -0.00005   0.00014   0.00012   0.00078   0.02077
  13  N 1   d 4     -0.00017  -0.00028  -0.00001  -0.00007   0.01277   0.00734
  14  N 1   d 5      0.00010  -0.00017   0.00004  -0.00001   0.00033  -0.00562
  15  N 2   s        0.03219   0.01997   0.28786   0.95441  -0.09297   0.10097
  16  N 2   s        0.00094   0.00057   0.00480   0.01477   0.20376  -0.23809
  17  N 2   s        0.00123   0.00064  -0.00081  -0.00595   0.11002  -0.30134
  18  N 2   px       0.00026   0.00002   0.00072   0.00173   0.07429  -0.04871
  19  N 2   py       0.00015   0.00022   0.00073   0.00176   0.07625  -0.09405
  20  N 2   pz      -0.00030  -0.00017  -0.00052  -0.00165  -0.07358  -0.11738
  21  N 2   px       0.00014  -0.00044  -0.00024  -0.00169   0.02388  -0.04175
  22  N 2   py      -0.00029   0.00032  -0.00024  -0.00168   0.02487  -0.05381
  23  N 2   pz      -0.00029  -0.00015   0.00082   0.00148  -0.02280  -0.00030
  24  N 2   d 1     -0.00011  -0.00006  -0.00025   0.00018   0.01519  -0.01846
  25  N 2   d 2      0.00016   0.00027   0.00005  -0.00009  -0.01469  -0.00462
  26  N 2   d 3     -0.00008  -0.00004   0.00018   0.00005   0.00104   0.01899
  27  N 2   d 4      0.00032   0.00001   0.00007  -0.00002  -0.01291  -0.01243
  28  N 2   d 5     -0.00009   0.00017   0.00002   0.00003   0.00024   0.00431
  29  N 3   s        0.26504   0.96080  -0.03798  -0.01754  -0.09658  -0.06760
  30  N 3   s        0.00458   0.01518  -0.00017  -0.00005   0.21319   0.15959
  31  N 3   s       -0.00057  -0.00607   0.00150   0.00075   0.11909   0.20529
  32  N 3   px       0.00068   0.00171   0.00011  -0.00006   0.07743   0.08861
  33  N 3   py      -0.00069  -0.00176  -0.00000  -0.00014  -0.07764  -0.07208
  34  N 3   pz       0.00054   0.00184   0.00016   0.00009   0.07627  -0.14983
  35  N 3   px      -0.00021  -0.00170   0.00020  -0.00037   0.02547   0.04299
  36  N 3   py       0.00023   0.00171   0.00020  -0.00035  -0.02620  -0.03914
  37  N 3   pz      -0.00078  -0.00159   0.00040   0.00021   0.02516  -0.01816
  38  N 3   d 1      0.00028  -0.00017   0.00010   0.00005  -0.01637  -0.02192
  39  N 3   d 2      0.00008  -0.00004   0.00017   0.00027  -0.01384   0.01227
  40  N 3   d 3      0.00017   0.00002  -0.00010  -0.00005   0.00078  -0.02478
  41  N 3   d 4     -0.00010  -0.00001  -0.00032   0.00001   0.01240  -0.01082
  42  N 3   d 5      0.00002   0.00006  -0.00010   0.00018   0.00095   0.00232
  43  N 4   s        0.96058  -0.26654  -0.03318  -0.01677  -0.09617  -0.11604
  44  N 4   s        0.01537  -0.00388  -0.00011  -0.00005   0.21260   0.27583
  45  N 4   s       -0.00550   0.00266   0.00146   0.00082   0.11846   0.34794
  46  N 4   px      -0.00183   0.00030  -0.00001  -0.00014  -0.07675  -0.06003
  47  N 4   py       0.00190  -0.00032   0.00012  -0.00006   0.07859   0.07469
  48  N 4   pz       0.00181  -0.00046   0.00018   0.00010   0.07500  -0.11402
  49  N 4   px       0.00158  -0.00071   0.00019  -0.00037  -0.02526  -0.04906
  50  N 4   py      -0.00160   0.00070   0.00019  -0.00036   0.02619   0.05391
  51  N 4   pz      -0.00174   0.00016   0.00040   0.00023   0.02476   0.00360
  52  N 4   d 1     -0.00000   0.00032   0.00009   0.00005  -0.01637  -0.01825
  53  N 4   d 2     -0.00001  -0.00009  -0.00031   0.00001   0.01403  -0.00805
  54  N 4   d 3      0.00012   0.00013  -0.00009  -0.00005   0.00080  -0.01783
  55  N 4   d 4      0.00007   0.00007   0.00016   0.00026  -0.01202   0.01193
  56  N 4   d 5      0.00007  -0.00001   0.00010  -0.00017   0.00073   0.00002
                         7         8         9        10        11        12
 eigenvalues:         -1.419    -1.405    -1.021    -0.930    -0.920    -0.917
   1  N 1   s        0.06484   0.12524  -0.04696  -0.03794  -0.06624   0.02171
   2  N 1   s       -0.15272  -0.29805   0.10454   0.10460   0.18264  -0.05890
   3  N 1   s       -0.19502  -0.37148   0.19742   0.12451   0.21985  -0.07467
   4  N 1   px      -0.12281   0.01508   0.15487  -0.02112   0.02946  -0.23714
   5  N 1   py       0.12327  -0.07899   0.14682   0.09537   0.11225   0.14089
   6  N 1   pz       0.01286   0.09350   0.19577   0.16382   0.30740  -0.06141
   7  N 1   px      -0.01125   0.03821   0.06808  -0.01291   0.02786  -0.12441
   8  N 1   py       0.05058   0.01548   0.06295   0.05152   0.06960   0.06707
   9  N 1   pz       0.02136   0.05600   0.09050   0.10433   0.17156  -0.03525
  10  N 1   d 1      0.00091   0.01011  -0.02166   0.01437   0.00106   0.00252
  11  N 1   d 2     -0.01782  -0.00148  -0.02423  -0.01792  -0.01186  -0.00621
  12  N 1   d 3     -0.00254  -0.01740   0.00074   0.01060  -0.01845   0.00079
  13  N 1   d 4      0.01669  -0.01119  -0.02644  -0.00685  -0.00949   0.01179
  14  N 1   d 5      0.02540  -0.01148   0.00100   0.00570   0.00822   0.03433
  15  N 2   s       -0.02949  -0.12794  -0.04593  -0.03285   0.07705  -0.00995
  16  N 2   s        0.06939   0.30419   0.10179   0.09044  -0.21146   0.02734
  17  N 2   s        0.08793   0.37921   0.19408   0.10806  -0.25674   0.03540
  18  N 2   px      -0.14911   0.01530  -0.15369  -0.00027   0.07413  -0.17659
  19  N 2   py       0.09507  -0.07648  -0.14064  -0.05958   0.14813   0.17278
  20  N 2   pz      -0.06149  -0.08942   0.19245   0.14319  -0.29552   0.06992
  21  N 2   px      -0.02844   0.03883  -0.06747   0.00310   0.05298  -0.09046
  22  N 2   py       0.03245   0.01669  -0.05972  -0.03222   0.08898   0.08472
  23  N 2   pz      -0.02356  -0.05628   0.08859   0.09248  -0.16741   0.03714
  24  N 2   d 1     -0.00791  -0.00936  -0.02096   0.01445   0.00233   0.00070
  25  N 2   d 2     -0.02096  -0.00067   0.02414   0.01619  -0.01196  -0.00543
  26  N 2   d 3      0.01017   0.01690   0.00010   0.01095   0.01346  -0.00707
  27  N 2   d 4      0.01289  -0.01081   0.02648   0.00726  -0.01008   0.00984
  28  N 2   d 5     -0.02520   0.01126   0.00041   0.00023  -0.00808  -0.03350
  29  N 3   s       -0.14219   0.05078  -0.05064   0.04242   0.01318   0.06335
  30  N 3   s        0.33981  -0.12254   0.11452  -0.11817  -0.03603  -0.17479
  31  N 3   s        0.42475  -0.14953   0.20984  -0.13797  -0.04325  -0.20895
  32  N 3   px      -0.07584  -0.11930  -0.18379   0.29641  -0.18287   0.12600
  33  N 3   py      -0.02991  -0.14298   0.16146  -0.19907  -0.18750  -0.01824
  34  N 3   pz       0.07295  -0.03464  -0.18706  -0.22254   0.07754   0.31626
  35  N 3   px       0.02026  -0.04443  -0.08271   0.16837  -0.08919   0.07828
  36  N 3   py      -0.04854  -0.02379   0.06979  -0.11119  -0.09626  -0.02199
  37  N 3   pz       0.05842  -0.02200  -0.08624  -0.11709   0.04260   0.17706
  38  N 3   d 1      0.00556  -0.00297   0.02221  -0.03172   0.00112   0.00174
  39  N 3   d 2     -0.01051  -0.01564   0.02559   0.01561  -0.01107  -0.00877
  40  N 3   d 3      0.01283  -0.00639   0.00205  -0.02634   0.00636   0.02205
  41  N 3   d 4     -0.00569  -0.01862  -0.02786  -0.00345  -0.00559   0.01458
  42  N 3   d 5     -0.00818  -0.02748   0.00084   0.00001  -0.03397   0.00708
  43  N 4   s        0.10761  -0.04903  -0.05170   0.03198  -0.02124  -0.07356
  44  N 4   s       -0.25780   0.11831   0.11730  -0.08863   0.05898   0.20426
  45  N 4   s       -0.31949   0.14463   0.21420  -0.10464   0.06877   0.24030
  46  N 4   px      -0.10297  -0.11679   0.17948  -0.29673  -0.15553   0.15434
  47  N 4   py      -0.00474  -0.14272  -0.16361   0.17073  -0.21830  -0.07554
  48  N 4   pz      -0.12181   0.03818  -0.19060  -0.27316  -0.06396  -0.29853
  49  N 4   px       0.00298  -0.04359   0.08036  -0.16570  -0.07393   0.09472
  50  N 4   py      -0.03203  -0.02403  -0.07001   0.09441  -0.11340  -0.05429
  51  N 4   pz      -0.06082   0.02252  -0.08813  -0.14516  -0.03782  -0.17087
  52  N 4   d 1     -0.01324   0.00315   0.02247  -0.03230  -0.00012   0.00127
  53  N 4   d 2     -0.01478  -0.01478  -0.02564  -0.01852  -0.01080  -0.01030
  54  N 4   d 3     -0.02099   0.00736   0.00245  -0.02929  -0.00114  -0.01497
  55  N 4   d 4     -0.00153  -0.01867   0.02784   0.00507  -0.00591   0.01316
  56  N 4   d 5      0.00876   0.02751   0.00150   0.00286   0.03452  -0.00601
                        13        14        15        16        17        18
 eigenvalues:         -0.906    -0.883    -0.173    -0.153    -0.139    -0.058
   1  N 1   s        0.04641   0.00620   0.00159   0.00208   0.00333   0.03697
   2  N 1   s       -0.12564  -0.01646  -0.00339  -0.00567  -0.00689  -0.07860
   3  N 1   s       -0.15310  -0.02032  -0.00749  -0.03658  -0.04050  -0.44369
   4  N 1   px      -0.30119   0.15391  -0.26778   0.10397  -0.25001   0.00996
   5  N 1   py      -0.20922  -0.28327   0.06702   0.25687   0.30019   0.08338
   6  N 1   pz       0.19441   0.08111   0.20379  -0.31226  -0.01022   0.19173
   7  N 1   px      -0.17617   0.09124  -0.31029   0.13604  -0.30165  -0.07007
   8  N 1   py      -0.11883  -0.16738   0.07430   0.31103   0.37023   0.16440
   9  N 1   pz       0.10168   0.04678   0.23646  -0.36823  -0.00360   0.49249
  10  N 1   d 1      0.03189   0.01168  -0.00465   0.00857  -0.00051  -0.02733
  11  N 1   d 2     -0.01516   0.02052   0.00568  -0.00332   0.00871   0.01490
  12  N 1   d 3     -0.02780  -0.00561  -0.00041   0.00042   0.00154   0.00987
  13  N 1   d 4     -0.00148  -0.02916  -0.00179  -0.00585  -0.00897  -0.00238
  14  N 1   d 5     -0.00086  -0.01211   0.00399   0.00334   0.00378  -0.00423
  15  N 2   s        0.03878   0.00531  -0.00064  -0.00110   0.00155   0.07722
  16  N 2   s       -0.10451  -0.01348   0.00093   0.00287  -0.00272  -0.16491
  17  N 2   s       -0.12853  -0.01836   0.00077   0.02799  -0.02118  -0.92322
  18  N 2   px       0.33060  -0.16141  -0.26134   0.06392   0.27727  -0.22005
  19  N 2   py       0.16566   0.29131   0.05580   0.29709  -0.25949  -0.10751
  20  N 2   pz       0.22518   0.08376  -0.19752   0.31484   0.03883   0.27779
  21  N 2   px       0.18923  -0.09579  -0.30231   0.08799   0.34113  -0.44578
  22  N 2   py       0.09491   0.17143   0.06131   0.35883  -0.31926  -0.15253
  23  N 2   pz       0.11953   0.04909  -0.22799   0.37433   0.05559   0.63240
  24  N 2   d 1      0.03186   0.01177   0.00441  -0.00935  -0.00181  -0.02712
  25  N 2   d 2      0.01703  -0.02102   0.00547  -0.00192  -0.00974   0.01282
  26  N 2   d 3     -0.02977  -0.00597   0.00066  -0.00019   0.00196   0.00646
  27  N 2   d 4      0.00034   0.02953  -0.00135  -0.00702   0.00792  -0.00783
  28  N 2   d 5      0.00585  -0.01345  -0.00389  -0.00401   0.00321   0.00303
  29  N 3   s       -0.04132   0.00189  -0.00382  -0.00385  -0.00292  -0.02008
  30  N 3   s        0.11645  -0.00446   0.00832   0.00837   0.00739   0.04328
  31  N 3   s        0.12995  -0.00778   0.03920   0.04663   0.03689   0.24860
  32  N 3   px       0.00170  -0.19025   0.28030  -0.02234  -0.26011  -0.01447
  33  N 3   py       0.13241  -0.27500  -0.08660  -0.26027  -0.29717  -0.01565
  34  N 3   pz      -0.14294  -0.06885  -0.31728  -0.17932   0.01028   0.15836
  35  N 3   px       0.00017  -0.11210   0.32835  -0.01440  -0.31086  -0.11294
  36  N 3   py       0.07591  -0.16200  -0.10580  -0.31235  -0.36346  -0.00144
  37  N 3   pz      -0.09762  -0.04210  -0.36659  -0.21038   0.02120   0.44143
  38  N 3   d 1     -0.01252  -0.01001   0.00915   0.00667  -0.00080  -0.02877
  39  N 3   d 2      0.01805  -0.02224  -0.00761  -0.00050   0.00890   0.01545
  40  N 3   d 3      0.01238  -0.00171  -0.00080  -0.00038  -0.00200  -0.01086
  41  N 3   d 4     -0.00332  -0.02971   0.00289   0.00739   0.00940  -0.00648
  42  N 3   d 5      0.00560  -0.01130   0.00026  -0.00330  -0.00265   0.00301
  43  N 4   s       -0.02760  -0.00026   0.00266   0.00258  -0.00126  -0.09259
  44  N 4   s        0.07847   0.00200  -0.00611  -0.00592   0.00341   0.20213
  45  N 4   s        0.08553  -0.00202  -0.03069  -0.03539   0.01830   1.11273
  46  N 4   px      -0.00315   0.19680   0.28753  -0.06134   0.25311  -0.24446
  47  N 4   py      -0.09505   0.27535  -0.07409  -0.29593   0.25742   0.17613
  48  N 4   pz      -0.08081  -0.08505   0.31879   0.18701   0.02033   0.30527
  49  N 4   px      -0.00454   0.11678   0.33644  -0.06067   0.30905  -0.48651
  50  N 4   py      -0.05374   0.16146  -0.09108  -0.35409   0.31418   0.31524
  51  N 4   pz      -0.06175  -0.05216   0.36836   0.22235   0.03314   0.67582
  52  N 4   d 1     -0.01222  -0.00973  -0.00962  -0.00685  -0.00166  -0.02839
  53  N 4   d 2     -0.01449   0.02163  -0.00809   0.00101  -0.00962   0.01095
  54  N 4   d 3      0.01651  -0.00312   0.00037  -0.00011  -0.00204  -0.00481
  55  N 4   d 4      0.00215   0.03039   0.00260   0.00883  -0.00863   0.00312
  56  N 4   d 5      0.00203  -0.01235  -0.00039   0.00395  -0.00203  -0.00125
                        19        20        21        22        23        24
 eigenvalues:         -0.053    -0.049     0.498     0.503     0.511     0.582
   1  N 1   s        0.06066   0.08513  -0.02495  -0.01676  -0.03412   0.03209
   2  N 1   s       -0.12881  -0.18278  -0.10495  -0.07686  -0.13299  -0.38861
   3  N 1   s       -0.73665  -1.02283   1.13101   0.76343   1.40778   0.49065
   4  N 1   px       0.24608   0.20209   0.09773   0.38578   0.25848  -0.17642
   5  N 1   py       0.03555   0.28752   0.12711  -0.02545   0.45552  -0.14876
   6  N 1   pz       0.19155   0.17098   0.44775   0.08501   0.14090  -0.28425
   7  N 1   px       0.57219   0.40244  -0.33971  -0.78991  -0.66405   0.20874
   8  N 1   py      -0.00368   0.66211  -0.40178  -0.06754  -1.02714   0.17529
   9  N 1   pz       0.41229   0.29386  -0.95327  -0.26690  -0.46389   0.34903
  10  N 1   d 1     -0.01394  -0.00169  -0.01472   0.02839   0.05930   0.01310
  11  N 1   d 2     -0.02511  -0.00929   0.05165  -0.02777   0.03990   0.02755
  12  N 1   d 3      0.00190  -0.00539   0.02335  -0.00416  -0.01555   0.00796
  13  N 1   d 4      0.01495  -0.02503   0.04789   0.05630  -0.00134   0.03112
  14  N 1   d 5      0.00730  -0.00421  -0.00079   0.02836  -0.01556   0.00077
  15  N 2   s       -0.00110  -0.07881  -0.02498   0.01504   0.03458   0.03178
  16  N 2   s        0.00260   0.16880  -0.10376   0.06194   0.14018  -0.38531
  17  N 2   s        0.01310   0.94523   1.11777  -0.64217  -1.46440   0.47886
  18  N 2   px       0.11893   0.18734  -0.11891   0.37468   0.25996   0.17477
  19  N 2   py      -0.05710   0.27881  -0.09737  -0.03589   0.45782   0.15293
  20  N 2   pz       0.04994  -0.15155   0.44601  -0.04769  -0.16364  -0.28116
  21  N 2   px       0.36055   0.37913   0.37654  -0.75044  -0.67581  -0.20112
  22  N 2   py      -0.16075   0.64547   0.34405  -0.03105  -1.03712  -0.18336
  23  N 2   pz       0.17715  -0.24363  -0.94843   0.18328   0.51741   0.34245
  24  N 2   d 1     -0.01397  -0.00154  -0.01535  -0.02933  -0.05978   0.01192
  25  N 2   d 2     -0.02567  -0.00891  -0.04635  -0.03290   0.04438  -0.02536
  26  N 2   d 3      0.00727   0.00664   0.02490   0.00788   0.01386   0.00854
  27  N 2   d 4      0.01148  -0.02542  -0.05185   0.05053   0.00300  -0.03173
  28  N 2   d 5     -0.00759   0.00383   0.00177  -0.02754   0.01495   0.00208
  29  N 3   s       -0.10345   0.03349   0.02349   0.03523  -0.01847   0.03249
  30  N 3   s        0.22467  -0.07344   0.10429   0.13811  -0.06697  -0.39904
  31  N 3   s        1.25395  -0.40183  -1.04915  -1.49963   0.73416   0.51329
  32  N 3   px       0.31193  -0.00101   0.08382   0.47930   0.02885   0.19990
  33  N 3   py      -0.20967   0.20526  -0.08082  -0.25544   0.39131  -0.15679
  34  N 3   pz       0.27718  -0.05560   0.45282   0.16779  -0.09148   0.26204
  35  N 3   px       0.68482   0.07153  -0.30605  -1.08874   0.05963  -0.24513
  36  N 3   py      -0.41779   0.52908   0.30417   0.69480  -0.82138   0.18190
  37  N 3   pz       0.54713  -0.07944  -0.94661  -0.50813   0.26863  -0.32962
  38  N 3   d 1     -0.01489  -0.00203  -0.01814   0.06000  -0.02999  -0.01628
  39  N 3   d 2     -0.02280  -0.01257   0.04512   0.00231  -0.05159  -0.02728
  40  N 3   d 3      0.00247  -0.00275  -0.02214   0.01488  -0.00796   0.00551
  41  N 3   d 4      0.00353  -0.02860  -0.04758  -0.04304  -0.03132   0.03237
  42  N 3   d 5     -0.00289  -0.00942  -0.00129  -0.01360  -0.02851   0.00148
  43  N 4   s        0.04426  -0.03945   0.02769  -0.03257   0.01635   0.03301
  44  N 4   s       -0.09655   0.08565   0.11690  -0.13031   0.06538  -0.39987
  45  N 4   s       -0.53164   0.47847  -1.20524   1.38930  -0.69047   0.49115
  46  N 4   px       0.18521  -0.01713  -0.12405   0.46511   0.03885  -0.19777
  47  N 4   py      -0.12000   0.21349   0.12531  -0.24255   0.38539   0.17361
  48  N 4   pz      -0.03870   0.07900   0.47119  -0.12256   0.06165   0.26838
  49  N 4   px       0.47604   0.04377   0.39890  -1.04558   0.03632   0.24937
  50  N 4   py      -0.26582   0.54302  -0.41186   0.65913  -0.80481  -0.20582
  51  N 4   pz       0.03756   0.13856  -1.00413   0.41105  -0.21019  -0.34625
  52  N 4   d 1     -0.01470  -0.00131  -0.01051  -0.06249   0.03144  -0.01509
  53  N 4   d 2     -0.02492  -0.01293  -0.04815  -0.00096  -0.05063   0.02728
  54  N 4   d 3     -0.01031   0.00221  -0.02040  -0.01757   0.00965   0.00579
  55  N 4   d 4      0.00836  -0.02795   0.04855  -0.03785  -0.03210  -0.03191
  56  N 4   d 5      0.00400   0.00920   0.00081   0.01279   0.02848   0.00046
                        25        26        27        28        29        30
 eigenvalues:          0.604     0.623     0.649     0.650     0.652     0.759
   1  N 1   s        0.00110  -0.00141   0.01895   0.03336   0.01617   0.00088
   2  N 1   s       -0.03439   0.02036  -0.12450  -0.20893  -0.11697   0.00502
   3  N 1   s        0.10843  -0.05906  -0.02890  -0.07124   0.01516  -0.02623
   4  N 1   px      -0.25753  -0.24541   0.22021  -0.27955  -0.27946  -0.34623
   5  N 1   py      -0.06477   0.36059  -0.11394  -0.33637   0.25973   0.12281
   6  N 1   pz       0.28890  -0.07936  -0.38229   0.12277  -0.21885   0.21490
   7  N 1   px       0.30642   0.31757   0.02317   0.57870   0.35350   0.85634
   8  N 1   py       0.06787  -0.44383   0.24463   0.56919  -0.02947  -0.27337
   9  N 1   pz      -0.43970   0.12692   0.53760   0.22619   0.33886  -0.54834
  10  N 1   d 1      0.04713  -0.01760  -0.03313   0.06636  -0.01121  -0.01133
  11  N 1   d 2     -0.03036  -0.04459   0.06122   0.00156  -0.02064   0.01415
  12  N 1   d 3     -0.03364   0.01032   0.04886  -0.05647   0.02166   0.00947
  13  N 1   d 4     -0.00122   0.04669   0.00569  -0.01014   0.06435  -0.00398
  14  N 1   d 5      0.01462   0.04688  -0.03875  -0.01001   0.05390  -0.00784
  15  N 2   s        0.00161  -0.00211  -0.03389   0.01692  -0.01828  -0.00079
  16  N 2   s       -0.03755   0.02350   0.21781  -0.10034   0.13130  -0.00064
  17  N 2   s        0.10598  -0.06142   0.05484  -0.04654  -0.00611   0.01017
  18  N 2   px       0.25305   0.23258   0.05235   0.33528  -0.31925  -0.33310
  19  N 2   py       0.07502  -0.34612  -0.28212   0.24746   0.25160   0.10627
  20  N 2   pz       0.28184  -0.07354   0.26962   0.32293   0.20274  -0.21526
  21  N 2   px      -0.30789  -0.30275   0.30664  -0.45488   0.41511   0.81751
  22  N 2   py      -0.08268   0.44022   0.50960  -0.35600  -0.01007  -0.23273
  23  N 2   pz      -0.42600   0.11816  -0.58927  -0.12060  -0.35142   0.55083
  24  N 2   d 1      0.04679  -0.01775  -0.00675   0.07493   0.00493   0.01133
  25  N 2   d 2      0.02825   0.04347   0.05612   0.02756  -0.02401   0.01367
  26  N 2   d 3     -0.03434   0.00976  -0.01210  -0.07508  -0.01673  -0.00961
  27  N 2   d 4      0.00090  -0.04351  -0.00135   0.01538   0.06625  -0.00253
  28  N 2   d 5      0.01334   0.04393   0.03951   0.00674  -0.05537   0.00669
  29  N 3   s        0.00943  -0.00406  -0.01204  -0.02500   0.02711   0.00089
  30  N 3   s       -0.07569   0.03043   0.08089   0.13686  -0.19284  -0.01977
  31  N 3   s        0.04583  -0.03156   0.01121   0.12588   0.01286   0.04281
  32  N 3   px       0.33798   0.21574   0.30922  -0.15490   0.20383   0.30171
  33  N 3   py      -0.14663   0.39632   0.21627   0.29310   0.15143  -0.09805
  34  N 3   pz      -0.31600   0.09478  -0.27461   0.09387   0.32980  -0.39109
  35  N 3   px      -0.47246  -0.28851  -0.13143   0.40335  -0.40248  -0.78040
  36  N 3   py       0.20488  -0.52493  -0.25605  -0.44913   0.12241   0.26726
  37  N 3   pz       0.35889  -0.10443   0.37020   0.24633  -0.58230   1.02951
  38  N 3   d 1     -0.06491   0.02622  -0.02359   0.04770   0.01052   0.02052
  39  N 3   d 2      0.03357   0.04186   0.06707   0.00763  -0.00260  -0.01764
  40  N 3   d 3     -0.05212   0.01756  -0.03774   0.04815   0.02752   0.01945
  41  N 3   d 4     -0.00632   0.04824   0.01984   0.01889   0.06061   0.00940
  42  N 3   d 5      0.01326   0.04463   0.05697   0.01775   0.03307  -0.00454
  43  N 4   s        0.00896  -0.00581   0.02375  -0.01731  -0.02503  -0.00121
  44  N 4   s       -0.06987   0.03877  -0.13873   0.08799   0.18499   0.01786
  45  N 4   s        0.04098  -0.02568  -0.08417   0.10517  -0.02926  -0.02974
  46  N 4   px      -0.34415  -0.20789   0.17028   0.31267   0.19605   0.31768
  47  N 4   py       0.13951  -0.38998   0.33328  -0.12321   0.18254  -0.07983
  48  N 4   pz      -0.32488   0.08294   0.17781   0.19532  -0.34496   0.38539
  49  N 4   px       0.47280   0.26480   0.11723  -0.44636  -0.38011  -0.82293
  50  N 4   py      -0.19565   0.53470  -0.45860   0.26310   0.07570   0.22193
  51  N 4   pz       0.37330  -0.08017  -0.44167   0.06079   0.56860  -1.01554
  52  N 4   d 1     -0.06511   0.02476  -0.00551   0.05191  -0.01339  -0.02041
  53  N 4   d 2     -0.03550  -0.04215   0.05905   0.02848  -0.00361  -0.01831
  54  N 4   d 3     -0.05317   0.01724   0.00405   0.05643  -0.03214  -0.01900
  55  N 4   d 4      0.00635  -0.04608   0.02566  -0.00020   0.06557   0.00814
  56  N 4   d 5      0.01498   0.04494  -0.05662  -0.01688  -0.03490   0.00542
                        31        32        33        34        35        36
 eigenvalues:          0.769     0.774     0.774     1.127     1.131     1.143
   1  N 1   s       -0.00269   0.01046   0.00015  -0.00679   0.02865  -0.00731
   2  N 1   s        0.00733   0.51406   0.05901  -0.17439   0.58532  -0.12350
   3  N 1   s        0.01058  -0.23979  -0.03282   0.43857  -1.52424   0.32519
   4  N 1   px       0.09059  -0.02356  -0.32171  -0.01629   0.02017  -0.01283
   5  N 1   py       0.32198  -0.08545   0.35012  -0.01292   0.02940   0.00303
   6  N 1   pz      -0.39249  -0.06004  -0.04177   0.00891   0.02348  -0.00524
   7  N 1   px      -0.27951   0.08083   0.81624  -0.01488   0.44164   0.02805
   8  N 1   py      -0.80180   0.24207  -0.86592  -0.04961   0.36949  -0.22356
   9  N 1   pz       1.01242   0.16633   0.08165  -0.26356   0.36642  -0.06553
  10  N 1   d 1      0.02217   0.16172   0.01573   0.12197   0.11383  -0.04883
  11  N 1   d 2     -0.00931   0.16076   0.03362  -0.10674   0.03104  -0.14087
  12  N 1   d 3     -0.01993  -0.00015   0.00072   0.42821   0.09034  -0.07542
  13  N 1   d 4     -0.01587   0.16753  -0.00116  -0.07873   0.09832   0.13132
  14  N 1   d 5     -0.00215  -0.00121  -0.01663  -0.05019  -0.11254  -0.42612
  15  N 2   s        0.00263   0.01014   0.00031  -0.02494  -0.01560   0.00723
  16  N 2   s       -0.00217   0.51951   0.05693  -0.54114  -0.29618   0.12164
  17  N 2   s       -0.02383  -0.25200  -0.02201   1.38666   0.77902  -0.33186
  18  N 2   px       0.06264   0.02109   0.34251   0.02385   0.00407  -0.01345
  19  N 2   py       0.35487   0.08491  -0.32571   0.03014   0.01124   0.00329
  20  N 2   pz       0.38887  -0.06736   0.00356  -0.01071  -0.02165   0.00677
  21  N 2   px      -0.21343  -0.07270  -0.86891   0.32393   0.30047   0.02558
  22  N 2   py      -0.88410  -0.23480   0.80340   0.28745   0.22890  -0.22386
  23  N 2   pz      -0.99830   0.18491  -0.03884  -0.44843  -0.08279   0.06982
  24  N 2   d 1     -0.02143   0.15836   0.01307   0.00980  -0.16770   0.04595
  25  N 2   d 2     -0.00784  -0.16034  -0.03486   0.09990  -0.05748  -0.13677
  26  N 2   d 3      0.02004   0.00412   0.00397   0.23835  -0.36583   0.06930
  27  N 2   d 4     -0.01671  -0.16900  -0.00128   0.12898   0.01177   0.12667
  28  N 2   d 5      0.00318   0.00231  -0.01594   0.04874   0.11283   0.42716
  29  N 3   s        0.00146   0.01062   0.00239   0.01309  -0.01248  -0.02500
  30  N 3   s       -0.01259   0.51830   0.04568   0.28300  -0.27999  -0.48197
  31  N 3   s        0.02011  -0.24640  -0.01611  -0.74196   0.72991   1.27229
  32  N 3   px      -0.09896   0.09063  -0.31676  -0.02310   0.00336   0.01818
  33  N 3   py      -0.31559  -0.00906  -0.35179   0.01484  -0.02349  -0.01611
  34  N 3   pz      -0.19896   0.06026  -0.00097   0.00074   0.01001   0.02434
  35  N 3   px       0.20645  -0.25566   0.82116  -0.07121   0.28819   0.34386
  36  N 3   py       0.78466   0.05537   0.89406   0.16428  -0.05217  -0.40179
  37  N 3   pz       0.52907  -0.17727  -0.02257  -0.32529   0.20910   0.24824
  38  N 3   d 1      0.01195  -0.15905  -0.01857   0.09258   0.01055   0.15624
  39  N 3   d 2     -0.00104  -0.16764   0.00225  -0.15297  -0.07151   0.06205
  40  N 3   d 3      0.01150  -0.00278  -0.00235  -0.36612   0.07346  -0.24941
  41  N 3   d 4      0.01686   0.16992   0.03829   0.04966  -0.17571   0.01550
  42  N 3   d 5      0.00668  -0.00063   0.01935   0.16413   0.39882  -0.12745
  43  N 4   s       -0.00158   0.01041   0.00215   0.01858  -0.00042   0.02470
  44  N 4   s        0.01488   0.52526   0.04742   0.41567  -0.00173   0.47631
  45  N 4   s       -0.01250  -0.26071  -0.02416  -1.07334   0.01124  -1.26205
  46  N 4   px      -0.12602  -0.08707   0.29283   0.01790  -0.01327   0.01837
  47  N 4   py      -0.34341   0.01764   0.32676  -0.02797  -0.00706  -0.01447
  48  N 4   pz       0.20145   0.05978  -0.00528  -0.00730  -0.00554  -0.02398
  49  N 4   px       0.27263   0.24786  -0.76244   0.26034   0.15003   0.34007
  50  N 4   py       0.85264  -0.07351  -0.82981  -0.16533   0.08220  -0.40218
  51  N 4   pz      -0.53429  -0.17465  -0.01554  -0.38274   0.07825  -0.24334
  52  N 4   d 1     -0.01204  -0.15879  -0.01905   0.05539  -0.07472  -0.15578
  53  N 4   d 2      0.00104   0.16722  -0.00104   0.05305  -0.16067   0.06418
  54  N 4   d 3     -0.01174  -0.00225  -0.00242  -0.30719   0.20912   0.25622
  55  N 4   d 4      0.01683  -0.16987  -0.03623  -0.16136  -0.08533   0.02015
  56  N 4   d 5     -0.00763  -0.00177   0.01797  -0.16135  -0.39831   0.12693
                        37        38        39        40        41        42
 eigenvalues:          1.424     1.430     1.438     1.546     1.563     1.970
   1  N 1   s        0.03755   0.02985   0.04835   0.00030   0.00170   0.00091
   2  N 1   s        0.96524   0.76118   1.19070  -0.01370   0.03143   0.00007
   3  N 1   s       -2.39237  -1.87706  -2.92551   0.01180  -0.06899  -0.02031
   4  N 1   px      -0.12911   0.11851  -0.08537  -0.10180  -0.10204  -0.03615
   5  N 1   py      -0.11819  -0.14547   0.06483  -0.02838   0.14232   0.02693
   6  N 1   pz       0.09829  -0.08573  -0.14055   0.13920  -0.04803   0.02282
   7  N 1   px       0.43074   0.84707   0.64957   0.02835   0.04458   0.13741
   8  N 1   py       0.45413   0.21397   1.04574   0.00091  -0.01185  -0.06854
   9  N 1   pz       0.94645   0.37423   0.52965  -0.04084   0.02367  -0.06104
  10  N 1   d 1      0.05817   0.02695   0.03411  -0.34302   0.10843  -0.20709
  11  N 1   d 2      0.02986   0.06018   0.04203   0.26534   0.24513   0.25947
  12  N 1   d 3      0.17238  -0.05777  -0.09882   0.02185  -0.00740  -0.20265
  13  N 1   d 4      0.02960   0.00873   0.08842   0.07509  -0.34669  -0.03999
  14  N 1   d 5     -0.01256   0.16644  -0.09649  -0.00850  -0.03186  -0.02509
  15  N 2   s        0.03847  -0.02689  -0.04887   0.00057  -0.00150  -0.01428
  16  N 2   s        0.98868  -0.68051  -1.21537  -0.00323  -0.02849  -0.06289
  17  N 2   s       -2.43408   1.66371   2.98008  -0.01123   0.08633   0.34060
  18  N 2   px       0.11861   0.12865  -0.09477   0.10452   0.09745   0.00240
  19  N 2   py       0.13108  -0.13548   0.06984   0.02821  -0.13723   0.07354
  20  N 2   pz       0.09260   0.09241   0.14481   0.13713  -0.04170  -0.03096
  21  N 2   px      -0.46816   0.80108   0.66192  -0.03152  -0.01342   0.16226
  22  N 2   py      -0.43446   0.17579   1.04996  -0.01310   0.07052  -0.03679
  23  N 2   pz       0.95724  -0.29691  -0.57025  -0.03808  -0.00513  -0.08916
  24  N 2   d 1      0.05787  -0.02128  -0.04271  -0.34493   0.10989   0.07404
  25  N 2   d 2     -0.03264   0.05648   0.05235  -0.26254  -0.24431   0.00562
  26  N 2   d 3      0.17000   0.06684   0.09404   0.02668  -0.00257   0.23033
  27  N 2   d 4     -0.02793   0.01224   0.07057  -0.07449   0.35560   0.16642
  28  N 2   d 5      0.00723  -0.16845   0.09809  -0.00898  -0.02050   0.49758
  29  N 3   s       -0.03628  -0.04947   0.03041  -0.00170   0.00211  -0.01472
  30  N 3   s       -0.92470  -1.23313   0.74032  -0.00452   0.03005  -0.05912
  31  N 3   s        2.28870   3.06008  -1.82768   0.02498  -0.07373   0.34406
  32  N 3   px      -0.12207   0.06028   0.13382   0.10905   0.09982   0.01223
  33  N 3   py       0.12037   0.09787   0.11931  -0.03545   0.14500  -0.03261
  34  N 3   pz       0.10166  -0.13800   0.07825  -0.13750   0.04438   0.06806
  35  N 3   px       0.41267   1.06991  -0.20464  -0.02466  -0.03986   0.16132
  36  N 3   py      -0.39948  -0.67302   0.84902   0.00189  -0.01134  -0.08830
  37  N 3   pz       0.93090   0.58527  -0.33876   0.04693  -0.02996  -0.03686
  38  N 3   d 1      0.06429   0.03506  -0.01993   0.34906  -0.11460  -0.30858
  39  N 3   d 2      0.02145   0.07508  -0.01013  -0.26679  -0.24843   0.30884
  40  N 3   d 3     -0.17534   0.10011  -0.05546   0.04003  -0.00860   0.30883
  41  N 3   d 4     -0.02578  -0.04818   0.07667   0.07629  -0.34857  -0.10177
  42  N 3   d 5      0.00514  -0.10383  -0.16208  -0.00757  -0.02144  -0.09518
  43  N 4   s       -0.04070   0.04623  -0.02906  -0.00070  -0.00014   0.02781
  44  N 4   s       -1.03050   1.15386  -0.71826   0.01157  -0.01844   0.11238
  45  N 4   s        2.53585  -2.84713   1.77419  -0.01901   0.04743  -0.66016
  46  N 4   px       0.12095   0.06909   0.13651  -0.11099  -0.09331   0.05295
  47  N 4   py      -0.12326   0.08839   0.12782   0.03326  -0.13912  -0.08594
  48  N 4   pz       0.08722   0.14702  -0.08912  -0.13599   0.04100  -0.07676
  49  N 4   px      -0.48648   1.02500  -0.19886   0.03693   0.02282   0.18643
  50  N 4   py       0.47969  -0.64372   0.84012  -0.01670   0.06443  -0.11117
  51  N 4   pz       0.97183  -0.50484   0.31526   0.04051  -0.00851  -0.11261
  52  N 4   d 1      0.06673  -0.03350   0.02599   0.34999  -0.10952   0.16795
  53  N 4   d 2     -0.03170   0.07144  -0.01452   0.26732   0.24992   0.04824
  54  N 4   d 3     -0.16562  -0.11196   0.06098   0.03569  -0.01045  -0.34549
  55  N 4   d 4      0.02960  -0.04419   0.05553  -0.08150   0.36087  -0.30869
  56  N 4   d 5     -0.00055   0.10354   0.16439  -0.01335  -0.01479  -0.39099
                        43        44        45        46        47        48
 eigenvalues:          1.973     1.977     1.992     1.994     1.998     2.139
   1  N 1   s       -0.01519   0.01131  -0.00556   0.07726   0.03808   0.02066
   2  N 1   s       -0.06007   0.05002  -0.02888   0.32960   0.15389   0.85632
   3  N 1   s        0.36654  -0.26664   0.08873  -1.81589  -0.92154  -0.33625
   4  N 1   px      -0.01967   0.03393   0.04415   0.21284   0.03000  -0.29115
   5  N 1   py      -0.07190   0.01452   0.03660   0.13525   0.15947  -0.29604
   6  N 1   pz      -0.02913   0.03722  -0.10055   0.17912   0.07828  -0.28875
   7  N 1   px      -0.12739   0.03399  -0.22517   0.25713   0.43743   0.28678
   8  N 1   py       0.00962   0.09507  -0.17629   0.52154  -0.08017   0.28649
   9  N 1   pz      -0.11024   0.03715   0.34426   0.40659   0.24965   0.28463
  10  N 1   d 1     -0.02921  -0.27024   0.40979   0.18940   0.17401  -0.15249
  11  N 1   d 2      0.12589   0.18088  -0.23458  -0.04526   0.41914  -0.17143
  12  N 1   d 3      0.10130  -0.47702  -0.23126   0.06240   0.06581   0.02440
  13  N 1   d 4     -0.19602   0.16560  -0.21598   0.27690  -0.40464  -0.19606
  14  N 1   d 5      0.55150   0.11846   0.04868   0.09072   0.03353   0.01404
  15  N 2   s       -0.00209  -0.00878   0.08244  -0.02126  -0.00190   0.02272
  16  N 2   s       -0.00568  -0.02983   0.32473  -0.06176  -0.02284   0.85572
  17  N 2   s        0.05434   0.20575  -1.94563   0.46605   0.03490  -0.37670
  18  N 2   px       0.03882   0.03257  -0.20391   0.05351  -0.08852   0.28042
  19  N 2   py      -0.00173   0.00988  -0.21223  -0.01950   0.04139   0.29008
  20  N 2   pz       0.01565  -0.03630   0.18243  -0.13996  -0.03373  -0.28311
  21  N 2   px      -0.10075   0.02306  -0.39071   0.11983   0.35402  -0.28338
  22  N 2   py       0.04499   0.08584  -0.34478   0.37842  -0.16089  -0.30528
  23  N 2   pz      -0.08659  -0.01200   0.51694   0.21630   0.15298   0.28778
  24  N 2   d 1     -0.15198   0.29532   0.32665   0.32318   0.16872  -0.15636
  25  N 2   d 2     -0.26642   0.23666  -0.14529   0.01040   0.44862   0.17978
  26  N 2   d 3     -0.05011   0.47611   0.05768  -0.19399  -0.15064   0.02489
  27  N 2   d 4      0.13146   0.13140   0.00870   0.45566  -0.29181   0.16543
  28  N 2   d 5      0.17661  -0.21075   0.09224   0.04524   0.04486   0.02374
  29  N 3   s        0.02377   0.00494  -0.03400   0.00096  -0.07765   0.01970
  30  N 3   s        0.10343   0.01969  -0.16708  -0.00156  -0.34768   0.85747
  31  N 3   s       -0.56703  -0.10706   0.80248   0.00571   1.84843  -0.31168
  32  N 3   px      -0.04585  -0.02502   0.15160  -0.03400   0.14212   0.30055
  33  N 3   py       0.07360  -0.01098  -0.04005  -0.08939  -0.17376  -0.29943
  34  N 3   pz      -0.05490  -0.01965   0.00821  -0.06767   0.19067   0.29115
  35  N 3   px      -0.14823   0.01950  -0.14214   0.09953   0.53223  -0.29169
  36  N 3   py       0.08208   0.08672  -0.25369   0.34749  -0.35667   0.28605
  37  N 3   pz      -0.12794  -0.00059   0.43256   0.25984   0.33540  -0.27532
  38  N 3   d 1      0.08379   0.15920   0.33633   0.27489   0.14994   0.17686
  39  N 3   d 2      0.03560  -0.18146  -0.33579   0.19186   0.26918   0.16976
  40  N 3   d 3     -0.26307  -0.23352   0.15261   0.18150  -0.24382   0.02720
  41  N 3   d 4      0.27785   0.00874  -0.16192   0.48720   0.02701  -0.19548
  42  N 3   d 5     -0.43768   0.34769  -0.12207   0.00742  -0.05754   0.00935
  43  N 4   s       -0.00602  -0.00699  -0.04573  -0.05636   0.03971   0.02209
  44  N 4   s       -0.01655  -0.02080  -0.22792  -0.22397   0.14568   0.85762
  45  N 4   s        0.13777   0.16011   1.09430   1.32667  -0.93316  -0.35883
  46  N 4   px       0.00185  -0.03739  -0.06357  -0.20290   0.04553  -0.28866
  47  N 4   py       0.01019   0.00113   0.16842   0.07984  -0.08549   0.29854
  48  N 4   pz       0.04619   0.02221   0.03670   0.12091  -0.16905   0.27969
  49  N 4   px      -0.10568   0.02024  -0.33619  -0.02431   0.43065   0.29134
  50  N 4   py       0.04639   0.08813  -0.05218   0.47356  -0.25491  -0.31136
  51  N 4   pz      -0.07247   0.02644   0.46404   0.35574   0.09513  -0.27420
  52  N 4   d 1     -0.26637  -0.13626   0.36407   0.24005   0.17203   0.18563
  53  N 4   d 2     -0.34751  -0.13759  -0.23338   0.23287   0.31426  -0.17598
  54  N 4   d 3      0.22443   0.24971   0.04032  -0.05786   0.33156   0.03327
  55  N 4   d 4     -0.03434   0.05125  -0.39195   0.31159  -0.09120   0.16255
  56  N 4   d 5     -0.30744  -0.26388  -0.02708  -0.15238  -0.03788   0.02087
                        49        50        51        52        53        54
 eigenvalues:          2.276     2.282     2.629     2.630     2.639     2.829
   1  N 1   s       -0.00133  -0.00098   0.09769   0.02452   0.11899  -0.00114
   2  N 1   s       -0.03794  -0.04311   0.70370   0.17882   0.86296  -0.00944
   3  N 1   s        0.03580   0.02424  -2.87168  -0.71007  -3.41950   0.03153
   4  N 1   px      -0.05801   0.07414   0.11074  -0.16750   0.12511  -0.05904
   5  N 1   py      -0.00589  -0.07957  -0.04697   0.12053   0.19493   0.01858
   6  N 1   pz       0.08915   0.04336   0.20976   0.11092  -0.01366   0.04142
   7  N 1   px       0.13373  -0.14080   0.93696  -0.21251   1.10706  -0.44935
   8  N 1   py       0.02048   0.17606   0.58057   0.45283   1.27961   0.11493
   9  N 1   pz      -0.20471  -0.08313   1.16006   0.42087   0.79332   0.30498
  10  N 1   d 1      0.07939   0.03441  -0.26533   0.01647  -0.63919   0.32812
  11  N 1   d 2     -0.05235   0.06226  -0.40236  -0.34799  -0.46029  -0.44557
  12  N 1   d 3      0.56094   0.19739  -0.15906  -0.11247   0.15436  -0.26639
  13  N 1   d 4     -0.00005  -0.06331  -0.59809   0.02494  -0.36639   0.12892
  14  N 1   d 5     -0.20416   0.55304  -0.13236   0.23578   0.06225   0.28348
  15  N 2   s       -0.00113  -0.00102   0.05712   0.06192  -0.13085   0.00084
  16  N 2   s       -0.03555  -0.03882   0.41370   0.44996  -0.95042   0.01019
  17  N 2   s        0.02910   0.02135  -1.67823  -1.80028   3.77901  -0.02536
  18  N 2   px       0.05923  -0.07130   0.09974  -0.16851   0.12503  -0.05662
  19  N 2   py       0.00630   0.07973  -0.05145   0.11879   0.19626   0.01721
  20  N 2   pz       0.08926   0.04040   0.20346   0.11342  -0.02196  -0.04266
  21  N 2   px      -0.13724   0.13923  -0.17629  -0.82136   1.19018  -0.43823
  22  N 2   py      -0.02345  -0.17884  -0.51917  -0.15657   1.35869   0.10447
  23  N 2   pz      -0.20134  -0.08049   0.86543   0.70210  -0.97608  -0.30396
  24  N 2   d 1      0.07374   0.03659  -0.04724  -0.18021   0.65782  -0.32832
  25  N 2   d 2      0.05172  -0.05288   0.43951   0.11628  -0.53719  -0.43431
  26  N 2   d 3      0.55171   0.20002  -0.20571  -0.08868  -0.11299   0.27067
  27  N 2   d 4      0.00790   0.06412   0.24619   0.49341  -0.44250   0.12555
  28  N 2   d 5     -0.19891   0.55353   0.11808  -0.23719  -0.05952  -0.26891
  29  N 3   s        0.00017  -0.00060  -0.13716   0.06724   0.03408   0.00083
  30  N 3   s       -0.02480  -0.04051  -0.98222   0.48551   0.24747  -0.00193
  31  N 3   s       -0.00970   0.01458   3.98597  -1.94437  -0.96316  -0.01031
  32  N 3   px       0.05566  -0.07189   0.11113  -0.16910   0.12934   0.05434
  33  N 3   py      -0.00575  -0.07924  -0.05100   0.11973   0.19912  -0.01779
  34  N 3   pz      -0.09322  -0.04386   0.21074   0.11016  -0.01577  -0.07675
  35  N 3   px      -0.14474   0.14032   1.21154  -0.85662   0.06929   0.42258
  36  N 3   py       0.02844   0.18058  -1.05947   0.73829   0.69959  -0.12536
  37  N 3   pz       0.18598   0.07614   1.43111  -0.21182  -0.26958  -0.55435
  38  N 3   d 1     -0.08681  -0.03217  -0.46440   0.50122   0.15423  -0.56298
  39  N 3   d 2      0.05901  -0.05017  -0.58734   0.13088   0.34896   0.43354
  40  N 3   d 3      0.55572   0.19767   0.12227   0.22786   0.01867  -0.47467
  41  N 3   d 4     -0.00673  -0.06168   0.67115  -0.20019   0.09190  -0.12627
  42  N 3   d 5     -0.19992   0.54961   0.05962  -0.04103   0.26895   0.14928
  43  N 4   s        0.00007  -0.00022  -0.01973  -0.15367  -0.02054  -0.00051
  44  N 4   s       -0.02474  -0.03409  -0.14025  -1.10620  -0.14797   0.00149
  45  N 4   s       -0.00665   0.00155   0.56590   4.45150   0.59888   0.00400
  46  N 4   px      -0.05775   0.07006   0.10212  -0.17160   0.12632   0.05664
  47  N 4   py       0.00507   0.07841  -0.04784   0.12267   0.19941  -0.01570
  48  N 4   pz      -0.09199  -0.04258   0.20269   0.11647  -0.01724   0.07504
  49  N 4   px       0.14387  -0.13417   0.09648  -1.46343   0.15646   0.43243
  50  N 4   py      -0.02692  -0.18339   0.02534   1.34780   0.61133  -0.11246
  51  N 4   pz       0.18492   0.07447   0.60058   1.33138   0.09933   0.54757
  52  N 4   d 1     -0.07945  -0.03134   0.15800  -0.67122  -0.13196   0.56319
  53  N 4   d 2     -0.04586   0.05862   0.23855   0.59353   0.28095   0.44323
  54  N 4   d 3      0.54443   0.19681   0.25112  -0.02446  -0.05380   0.46542
  55  N 4   d 4      0.01286   0.06408  -0.17082  -0.65922   0.16042  -0.11687
  56  N 4   d 5     -0.19411   0.54733  -0.04069   0.04323  -0.27094  -0.16152
                        55        56
 eigenvalues:          2.842     2.851
   1  N 1   s        0.00169   0.00048
   2  N 1   s        0.02675   0.01653
   3  N 1   s       -0.05914  -0.02727
   4  N 1   px       0.02277  -0.06267
   5  N 1   py       0.04217   0.07166
   6  N 1   pz      -0.07754  -0.01934
   7  N 1   px       0.22160  -0.40441
   8  N 1   py       0.35535   0.53466
   9  N 1   pz      -0.52176  -0.10452
  10  N 1   d 1     -0.56000  -0.11769
  11  N 1   d 2      0.20486  -0.42206
  12  N 1   d 3      0.45851   0.09998
  13  N 1   d 4      0.33850   0.53305
  14  N 1   d 5      0.07181   0.47313
  15  N 2   s       -0.00181  -0.00012
  16  N 2   s       -0.02362  -0.00082
  17  N 2   s        0.06264   0.00001
  18  N 2   px       0.00136   0.06573
  19  N 2   py       0.06782  -0.04968
  20  N 2   pz       0.07434   0.01741
  21  N 2   px       0.04585   0.46798
  22  N 2   py       0.53738  -0.35093
  23  N 2   pz       0.51419   0.11502
  24  N 2   d 1      0.56345   0.11605
  25  N 2   d 2      0.00913   0.47714
  26  N 2   d 3     -0.46475  -0.09911
  27  N 2   d 4      0.51033  -0.36261
  28  N 2   d 5     -0.24876   0.40642
  29  N 3   s        0.00019  -0.00030
  30  N 3   s       -0.00802  -0.01284
  31  N 3   s        0.00728   0.01883
  32  N 3   px      -0.00297  -0.06853
  33  N 3   py      -0.04276  -0.07167
  34  N 3   pz      -0.04602  -0.01150
  35  N 3   px      -0.01535  -0.46066
  36  N 3   py      -0.33476  -0.53677
  37  N 3   pz      -0.30533  -0.04777
  38  N 3   d 1     -0.32250  -0.07011
  39  N 3   d 2     -0.02911  -0.48585
  40  N 3   d 3     -0.26326  -0.04650
  41  N 3   d 4     -0.33487  -0.53031
  42  N 3   d 5     -0.17582  -0.49548
  43  N 4   s        0.00003  -0.00022
  44  N 4   s        0.00517  -0.00283
  45  N 4   s       -0.01096   0.00857
  46  N 4   px      -0.02461   0.05915
  47  N 4   py      -0.06672   0.04945
  48  N 4   pz       0.04435   0.00905
  49  N 4   px      -0.19096   0.41264
  50  N 4   py      -0.51123   0.36070
  51  N 4   pz       0.30855   0.06040
  52  N 4   d 1      0.31897   0.05865
  53  N 4   d 2     -0.20805   0.42291
  54  N 4   d 3      0.27094   0.04440
  55  N 4   d 4     -0.51612   0.35870
  56  N 4   d 5      0.35361  -0.38711


                        BETA  MOLECULAR ORBITAL COEFFICIENTS
                         1         2         3         4         5         6
 eigenvalues:        -16.119   -16.118   -16.114   -16.114    -2.015    -1.382
   1  N 1   s        0.06135   0.05245   0.96272  -0.24904  -0.09423   0.11520
   2  N 1   s        0.00137   0.00105   0.01446  -0.00342   0.20512  -0.27218
   3  N 1   s        0.00074   0.00032  -0.00512   0.00213   0.11551  -0.34177
   4  N 1   px      -0.00022  -0.00025  -0.00181   0.00033  -0.07902   0.03962
   5  N 1   py      -0.00029  -0.00008  -0.00182   0.00030  -0.08061  -0.10400
   6  N 1   pz      -0.00027  -0.00020  -0.00168   0.00038  -0.07632   0.08571
   7  N 1   px       0.00035  -0.00020   0.00143  -0.00056  -0.02607   0.04172
   8  N 1   py      -0.00001   0.00045   0.00145  -0.00058  -0.02590   0.00323
   9  N 1   pz      -0.00007  -0.00002   0.00154  -0.00003  -0.02586   0.05094
  10  N 1   d 1     -0.00011  -0.00007   0.00002  -0.00034   0.01557   0.00929
  11  N 1   d 2     -0.00036   0.00002   0.00012  -0.00008   0.01551   0.00144
  12  N 1   d 3     -0.00011  -0.00006  -0.00017   0.00021  -0.00242  -0.01223
  13  N 1   d 4     -0.00015  -0.00030   0.00036  -0.00015   0.01751  -0.01815
  14  N 1   d 5      0.00009  -0.00017  -0.00010   0.00002  -0.00118  -0.01361
  15  N 2   s        0.06101   0.03219   0.24403   0.96492  -0.09359  -0.11930
  16  N 2   s        0.00136   0.00074   0.00394   0.01433   0.20371   0.28163
  17  N 2   s        0.00078   0.00043  -0.00060  -0.00549   0.11437   0.35364
  18  N 2   px       0.00030   0.00007   0.00058   0.00172   0.07771   0.04159
  19  N 2   py       0.00019   0.00022   0.00060   0.00173   0.07972  -0.09908
  20  N 2   pz      -0.00029  -0.00014  -0.00048  -0.00169  -0.07671  -0.07873
  21  N 2   px       0.00002  -0.00042  -0.00018  -0.00152   0.02568   0.04319
  22  N 2   py      -0.00034   0.00023  -0.00018  -0.00154   0.02526   0.00566
  23  N 2   pz      -0.00009  -0.00003   0.00072   0.00138  -0.02598  -0.05072
  24  N 2   d 1     -0.00011  -0.00007  -0.00029   0.00016   0.01517  -0.00861
  25  N 2   d 2      0.00017   0.00032   0.00001  -0.00017  -0.01583   0.00166
  26  N 2   d 3     -0.00011  -0.00007   0.00011  -0.00024  -0.00198   0.01129
  27  N 2   d 4      0.00033  -0.00002  -0.00003  -0.00036  -0.01739  -0.01765
  28  N 2   d 5     -0.00009   0.00016  -0.00003  -0.00009  -0.00107   0.01335
  29  N 3   s        0.26555   0.95821  -0.07666  -0.02931  -0.09365   0.06716
  30  N 3   s        0.00429   0.01412  -0.00073  -0.00021   0.20397  -0.15773
  31  N 3   s       -0.00043  -0.00524   0.00144   0.00081   0.11256  -0.20038
  32  N 3   px       0.00060   0.00170   0.00004  -0.00004   0.07972  -0.10906
  33  N 3   py      -0.00063  -0.00171   0.00008  -0.00011  -0.08115  -0.14290
  34  N 3   pz       0.00060   0.00176   0.00003   0.00003   0.07813  -0.04366
  35  N 3   px      -0.00023  -0.00148   0.00021  -0.00031   0.02571  -0.04784
  36  N 3   py       0.00021   0.00150   0.00016  -0.00034  -0.02549  -0.02042
  37  N 3   pz      -0.00067  -0.00134   0.00037   0.00020   0.02595  -0.02853
  38  N 3   d 1      0.00034  -0.00009   0.00007   0.00004  -0.01471  -0.00553
  39  N 3   d 2      0.00001  -0.00026   0.00018   0.00030  -0.01692  -0.01111
  40  N 3   d 3      0.00010  -0.00020  -0.00010  -0.00007  -0.00201  -0.00658
  41  N 3   d 4      0.00003   0.00043  -0.00038   0.00000   0.01877  -0.02044
  42  N 3   d 5     -0.00006  -0.00015  -0.00009   0.00015  -0.00148  -0.02569
  43  N 4   s        0.95785  -0.27099  -0.05588  -0.03734  -0.09285  -0.06401
  44  N 4   s        0.01426  -0.00367  -0.00045  -0.00031   0.20253   0.15007
  45  N 4   s       -0.00467   0.00243   0.00139   0.00081   0.11055   0.19142
  46  N 4   px      -0.00177   0.00037   0.00000  -0.00009  -0.07873  -0.10498
  47  N 4   py       0.00181  -0.00035   0.00007  -0.00009   0.08223  -0.14433
  48  N 4   pz       0.00178  -0.00039   0.00005   0.00005   0.07701   0.04961
  49  N 4   px       0.00138  -0.00059   0.00017  -0.00032  -0.02519  -0.04613
  50  N 4   py      -0.00138   0.00062   0.00023  -0.00032   0.02532  -0.02149
  51  N 4   pz      -0.00147   0.00014   0.00036   0.00021   0.02533   0.02941
  52  N 4   d 1      0.00008   0.00033   0.00007   0.00005  -0.01493   0.00576
  53  N 4   d 2      0.00021  -0.00015  -0.00034  -0.00001   0.01690  -0.01036
  54  N 4   d 3     -0.00016   0.00019  -0.00011  -0.00006  -0.00258   0.00760
  55  N 4   d 4     -0.00040   0.00020   0.00017   0.00032  -0.01873  -0.02064
  56  N 4   d 5     -0.00017   0.00004   0.00009  -0.00014  -0.00189   0.02561
                         7         8         9        10        11        12
 eigenvalues:         -1.353    -1.332    -1.010    -0.906    -0.886    -0.882
   1  N 1   s       -0.06454   0.10235  -0.05389   0.04002   0.05459   0.00115
   2  N 1   s        0.15468  -0.24462   0.12184  -0.10828  -0.14747  -0.00537
   3  N 1   s        0.19197  -0.30844   0.22003  -0.13510  -0.17991   0.00103
   4  N 1   px       0.14101   0.04965   0.17531  -0.23706   0.00272   0.19490
   5  N 1   py      -0.10682   0.07378   0.19231   0.11509  -0.18785  -0.26265
   6  N 1   pz      -0.03476  -0.10909   0.14806  -0.15640  -0.22964   0.07805
   7  N 1   px       0.02404   0.03701   0.07956  -0.13185  -0.01603   0.11221
   8  N 1   py      -0.04829   0.04908   0.08776   0.05119  -0.11375  -0.15465
   9  N 1   pz      -0.02283  -0.00527   0.06548  -0.08928  -0.13325   0.04441
  10  N 1   d 1     -0.00484  -0.01658  -0.02513   0.00078  -0.00016   0.00683
  11  N 1   d 2      0.01831   0.00591  -0.02314  -0.00176   0.01276   0.01899
  12  N 1   d 3      0.00734   0.02833   0.00003   0.01126   0.02121  -0.00226
  13  N 1   d 4     -0.00918   0.00375  -0.01881   0.01213   0.00419  -0.02925
  14  N 1   d 5     -0.02805   0.00263   0.00047   0.03126  -0.01974  -0.01278
  15  N 2   s        0.07070   0.09312  -0.05491  -0.03765  -0.06071  -0.00601
  16  N 2   s       -0.16917  -0.22268   0.12450   0.10206   0.16534   0.01426
  17  N 2   s       -0.20928  -0.27931   0.22410   0.12660   0.19749   0.02428
  18  N 2   px       0.13721  -0.05919  -0.17302  -0.21502  -0.00377  -0.21228
  19  N 2   py      -0.11153  -0.07054  -0.18939   0.10471  -0.24016   0.25515
  20  N 2   pz       0.03052  -0.11336   0.15264   0.14629   0.22058   0.10237
  21  N 2   px       0.02200  -0.03764  -0.07832  -0.11951  -0.02044  -0.12390
  22  N 2   py      -0.05127  -0.04482  -0.08574   0.04525  -0.14434   0.14888
  23  N 2   pz       0.02341  -0.00870   0.06756   0.08328   0.13151   0.05931
  24  N 2   d 1      0.00404  -0.01719  -0.02477  -0.00144  -0.00170   0.00683
  25  N 2   d 2      0.01842  -0.00601   0.02292  -0.00137   0.01419  -0.01829
  26  N 2   d 3     -0.00568   0.02915  -0.00056  -0.01210  -0.01632  -0.00471
  27  N 2   d 4     -0.00949  -0.00356   0.01915   0.00998   0.00151   0.03030
  28  N 2   d 5      0.02786   0.00107   0.00026  -0.03017   0.02084  -0.01340
  29  N 3   s        0.11561  -0.10242  -0.04716   0.05882  -0.02833  -0.00123
  30  N 3   s       -0.27409   0.24764   0.10385  -0.16036   0.07897   0.00160
  31  N 3   s       -0.34811   0.30625   0.19548  -0.19490   0.08524   0.00825
  32  N 3   px       0.08819   0.04157  -0.15616   0.20030   0.12611  -0.18598
  33  N 3   py       0.04306  -0.06883   0.18120   0.02739   0.23818  -0.25638
  34  N 3   pz      -0.06676  -0.11035  -0.16675   0.25080  -0.14902  -0.08404
  35  N 3   px      -0.00790   0.03314  -0.07029   0.11816   0.05534  -0.10802
  36  N 3   py       0.04528  -0.04482   0.08358   0.00067   0.13731  -0.15062
  37  N 3   pz      -0.04246  -0.00641  -0.07589   0.14493  -0.08834  -0.04805
  38  N 3   d 1     -0.00965  -0.01464   0.02505  -0.00022  -0.00096  -0.00745
  39  N 3   d 2      0.01593   0.00281   0.02252  -0.00277   0.01270  -0.01851
  40  N 3   d 3     -0.01309  -0.02703  -0.00018   0.01845  -0.01361  -0.00407
  41  N 3   d 4     -0.00253  -0.00263  -0.01923   0.01199   0.00261  -0.02871
  42  N 3   d 5      0.01785  -0.00350  -0.00023   0.02055   0.03261  -0.01112
  43  N 4   s       -0.12284  -0.09698  -0.04599  -0.06146   0.03634  -0.00290
  44  N 4   s        0.29210   0.23440   0.10088   0.16767  -0.09950   0.00662
  45  N 4   s        0.36806   0.28923   0.19128   0.20311  -0.11215   0.01308
  46  N 4   px       0.08580  -0.05163   0.15731   0.20105   0.07315   0.20955
  47  N 4   py       0.04741   0.05996  -0.18170  -0.00714   0.25856   0.27981
  48  N 4   pz       0.05776  -0.10771  -0.16135  -0.23609   0.14320  -0.09429
  49  N 4   px      -0.00954  -0.03389   0.07108   0.11917   0.02473   0.12142
  50  N 4   py       0.04812   0.04090  -0.08379  -0.01884   0.14921   0.16297
  51  N 4   pz       0.04105  -0.00587  -0.07308  -0.13736   0.08766  -0.05462
  52  N 4   d 1      0.00836  -0.01508   0.02481   0.00228  -0.00163  -0.00705
  53  N 4   d 2      0.01554  -0.00457  -0.02254  -0.00437   0.01109   0.01893
  54  N 4   d 3      0.01026  -0.02772  -0.00026  -0.01667   0.00867  -0.00522
  55  N 4   d 4     -0.00272   0.00147   0.01901   0.00971   0.00030   0.02956
  56  N 4   d 5     -0.01812  -0.00137  -0.00006  -0.01952  -0.03149  -0.01561
                        13        14        15        16        17        18
 eigenvalues:         -0.877    -0.444    -0.133    -0.098    -0.054    -0.051
   1  N 1   s       -0.04259   0.00641  -0.00226   0.00167  -0.04723   0.06041
   2  N 1   s        0.12053  -0.01433   0.00436  -0.00022   0.10075  -0.12738
   3  N 1   s        0.12465  -0.02597   0.01588  -0.02212   0.56129  -0.70163
   4  N 1   px       0.21871   0.15611  -0.26853   0.04282   0.05590   0.36377
   5  N 1   py       0.25448   0.01075   0.25295   0.26306  -0.23337   0.12356
   6  N 1   pz      -0.07953  -0.24230  -0.00609  -0.32405  -0.19780  -0.04131
   7  N 1   px       0.13443   0.11928  -0.33171   0.05185   0.09325   0.63023
   8  N 1   py       0.15369   0.00796   0.31387   0.35433  -0.54486   0.30641
   9  N 1   pz      -0.02515  -0.19130  -0.00939  -0.42729  -0.30081  -0.03993
  10  N 1   d 1     -0.01738  -0.02253   0.00112   0.01147   0.00203   0.00595
  11  N 1   d 2      0.00321   0.01951   0.00793   0.00149  -0.00891  -0.01764
  12  N 1   d 3      0.03202   0.00298  -0.00470   0.00583   0.00335  -0.00051
  13  N 1   d 4      0.00195   0.00627  -0.00847  -0.00989   0.02723  -0.01243
  14  N 1   d 5      0.00227  -0.00291   0.00254  -0.00520   0.00692   0.00282
  15  N 2   s       -0.03626   0.00527  -0.00448  -0.00045   0.04779  -0.05972
  16  N 2   s        0.10290  -0.01164   0.00994  -0.00184  -0.10121   0.12504
  17  N 2   s        0.10559  -0.02170   0.03816   0.00912  -0.56647   0.69730
  18  N 2   px      -0.22782  -0.15040   0.28856   0.05552   0.04914   0.35100
  19  N 2   py      -0.21520  -0.02635  -0.26131   0.25331  -0.22802   0.13686
  20  N 2   pz      -0.10289  -0.23757  -0.01681   0.32612   0.20254   0.03835
  21  N 2   px      -0.13628  -0.11604   0.36268   0.06852   0.08198   0.61213
  22  N 2   py      -0.12972  -0.01975  -0.32254   0.34169  -0.53583   0.32603
  23  N 2   pz      -0.03924  -0.18727  -0.02333   0.43504   0.31027   0.03153
  24  N 2   d 1     -0.01756  -0.02267   0.00143  -0.01176  -0.00191  -0.00638
  25  N 2   d 2     -0.00454  -0.01892  -0.00945   0.00079  -0.00911  -0.01723
  26  N 2   d 3      0.03443   0.00302  -0.00395  -0.00585  -0.00280   0.00115
  27  N 2   d 4     -0.00169  -0.00615   0.00877  -0.00930   0.02696  -0.01260
  28  N 2   d 5     -0.00209  -0.00118   0.00214   0.00511  -0.00661  -0.00279
  29  N 3   s        0.04816  -0.00564   0.00158   0.00958  -0.06656   0.00075
  30  N 3   s       -0.12954   0.01428  -0.00585  -0.02175   0.14222  -0.00059
  31  N 3   s       -0.15109   0.01671  -0.00988  -0.08654   0.77554  -0.03406
  32  N 3   px       0.17523  -0.20749  -0.28042  -0.08997   0.02050  -0.11971
  33  N 3   py      -0.24197   0.09417  -0.25187  -0.22413  -0.23404   0.13085
  34  N 3   pz       0.02342   0.24494   0.00427  -0.21423   0.25073   0.23536
  35  N 3   px       0.10702  -0.16197  -0.34551  -0.12240   0.07961  -0.08049
  36  N 3   py      -0.14506   0.07400  -0.30947  -0.28012  -0.54970   0.30571
  37  N 3   pz       0.03426   0.18349   0.00353  -0.28287   0.37924   0.33485
  38  N 3   d 1     -0.01140   0.02554   0.00196   0.00619  -0.00211  -0.00803
  39  N 3   d 2     -0.00527  -0.01873   0.00976   0.00420   0.00139  -0.00903
  40  N 3   d 3     -0.02881   0.01149   0.00451  -0.00412   0.00270   0.00216
  41  N 3   d 4      0.00245   0.00589   0.00811   0.00509   0.02640  -0.01637
  42  N 3   d 5     -0.00243  -0.00197  -0.00323   0.00503   0.00522  -0.00593
  43  N 4   s        0.03958  -0.00270   0.00412  -0.01052   0.06574  -0.00142
  44  N 4   s       -0.10636   0.00706  -0.01151   0.02457  -0.13990   0.00125
  45  N 4   s       -0.12291   0.00656  -0.03146   0.09643  -0.77013   0.03953
  46  N 4   px      -0.18433   0.20754   0.28263  -0.07640   0.01497  -0.13425
  47  N 4   py       0.20564  -0.08151   0.26116  -0.20667  -0.23973   0.11596
  48  N 4   pz      -0.01112   0.25671  -0.02562   0.22317  -0.24756  -0.23485
  49  N 4   px      -0.10959   0.15971   0.35377  -0.10398   0.07263  -0.10176
  50  N 4   py       0.12329  -0.06320   0.32133  -0.25613  -0.55729   0.28359
  51  N 4   pz       0.01325   0.19285  -0.03329   0.29951  -0.37502  -0.33664
  52  N 4   d 1     -0.01114   0.02549   0.00251  -0.00696   0.00206   0.00816
  53  N 4   d 2      0.00298   0.01910  -0.01047   0.00406   0.00156  -0.00861
  54  N 4   d 3     -0.03087   0.01235   0.00422   0.00409  -0.00325  -0.00220
  55  N 4   d 4     -0.00257  -0.00615  -0.00834   0.00467   0.02648  -0.01575
  56  N 4   d 5      0.00152  -0.00285  -0.00202  -0.00515  -0.00498   0.00593
                        19        20        21        22        23        24
 eigenvalues:         -0.034    -0.024     0.504     0.514     0.521     0.589
   1  N 1   s        0.03831   0.07480  -0.02842  -0.02573  -0.02695   0.03468
   2  N 1   s       -0.07845  -0.15580  -0.10913  -0.09122  -0.11695  -0.39057
   3  N 1   s       -0.46795  -0.92899   1.16519   1.05382   1.19555   0.45405
   4  N 1   px       0.09330   0.12101   0.13423   0.42866   0.15575  -0.22996
   5  N 1   py       0.08716   0.13582   0.44508   0.11474   0.14091  -0.20070
   6  N 1   pz       0.09787   0.27754   0.11592   0.11648   0.42317  -0.24007
   7  N 1   px       0.37607   0.26334  -0.40034  -0.95463  -0.47362   0.29487
   8  N 1   py       0.11149   0.23170  -0.99121  -0.34310  -0.42060   0.25213
   9  N 1   pz       0.11518   0.71005  -0.38532  -0.37419  -0.95596   0.30912
  10  N 1   d 1      0.00470  -0.03017   0.04817   0.04821  -0.02119   0.02749
  11  N 1   d 2     -0.02304  -0.00434   0.04832  -0.02380   0.05239   0.02086
  12  N 1   d 3     -0.00231   0.00609  -0.01205  -0.01127   0.02542  -0.00017
  13  N 1   d 4      0.00236   0.00040  -0.01558   0.05050   0.05566   0.02323
  14  N 1   d 5      0.00484   0.00255  -0.02170   0.02459   0.00181   0.00204
  15  N 2   s       -0.06368   0.05396   0.02782   0.02734  -0.02511   0.03480
  16  N 2   s        0.13310  -0.11284   0.11060   0.10080  -0.10809  -0.38895
  17  N 2   s        0.76978  -0.66610  -1.17580  -1.12216   1.10360   0.43690
  18  N 2   px       0.12848  -0.07667   0.13066   0.43376  -0.12532   0.23081
  19  N 2   py       0.13491  -0.09477   0.44211   0.11850  -0.12400   0.20673
  20  N 2   pz      -0.19900   0.21199  -0.12326  -0.14581   0.41410  -0.24363
  21  N 2   px       0.43618  -0.09301  -0.39626  -0.97412   0.39696  -0.30087
  22  N 2   py       0.19211  -0.16985  -0.98436  -0.35912   0.38010  -0.25833
  23  N 2   pz      -0.37137   0.59857   0.40143   0.44082  -0.92969   0.31719
  24  N 2   d 1      0.00737  -0.02909  -0.04985  -0.04654  -0.02520   0.02599
  25  N 2   d 2     -0.02299  -0.00447   0.05064  -0.01998  -0.05331  -0.02078
  26  N 2   d 3      0.00048   0.00686   0.01114   0.01078   0.02786   0.00036
  27  N 2   d 4      0.00198   0.00104  -0.01336   0.05369  -0.05080  -0.02266
  28  N 2   d 5     -0.00507   0.00010   0.02097  -0.02374  -0.00067   0.00166
  29  N 3   s       -0.04970  -0.07819  -0.02737   0.02744   0.02993   0.03253
  30  N 3   s        0.10421   0.15918  -0.10277   0.10552   0.08211  -0.39835
  31  N 3   s        0.62611   0.97087   1.11397  -1.14992  -1.13976   0.54711
  32  N 3   px       0.31771   0.16365  -0.10081   0.43651   0.17021   0.21352
  33  N 3   py      -0.13468  -0.13878   0.44375  -0.13574  -0.15632  -0.18155
  34  N 3   pz      -0.08258   0.23866  -0.12422   0.12802   0.44502   0.20551
  35  N 3   px       0.71686   0.32689   0.34515  -0.95869  -0.48511  -0.24719
  36  N 3   py      -0.24763  -0.23848  -0.97034   0.39509   0.43472   0.21318
  37  N 3   pz      -0.15010   0.65369   0.40195  -0.43235  -0.99404  -0.23227
  38  N 3   d 1      0.01068  -0.02759  -0.04705   0.05184  -0.02451  -0.02244
  39  N 3   d 2     -0.02954  -0.00551  -0.04849  -0.02127   0.04820  -0.02684
  40  N 3   d 3      0.00120  -0.00691  -0.01112   0.01321  -0.02690   0.00297
  41  N 3   d 4      0.00320   0.00123  -0.01795  -0.04954  -0.05332   0.02896
  42  N 3   d 5     -0.00509  -0.00253  -0.02131  -0.02235  -0.00275   0.00263
  43  N 4   s        0.07580  -0.05258   0.02666  -0.02980   0.02850   0.03199
  44  N 4   s       -0.15688   0.10707   0.10147  -0.10419   0.07479  -0.39893
  45  N 4   s       -0.93683   0.64514  -1.10916   1.20351  -1.06076   0.55313
  46  N 4   px       0.35164  -0.03006  -0.09794   0.44785  -0.14110  -0.20622
  47  N 4   py      -0.18206   0.08498   0.44519  -0.14832   0.15306   0.18805
  48  N 4   pz      -0.01557   0.24625   0.11340  -0.15838   0.43334   0.19928
  49  N 4   px       0.77404  -0.01831   0.34023  -0.98714   0.42319   0.23383
  50  N 4   py      -0.32422   0.14054  -0.97474   0.42822  -0.42370  -0.21892
  51  N 4   pz      -0.10273   0.65176  -0.38535   0.49591  -0.95052  -0.21783
  52  N 4   d 1      0.00027  -0.02950   0.04792  -0.05081  -0.02717  -0.02264
  53  N 4   d 2     -0.02876  -0.00595  -0.04941  -0.01750  -0.05051   0.02595
  54  N 4   d 3      0.00186  -0.00703   0.01214  -0.01187  -0.02737   0.00272
  55  N 4   d 4      0.00356  -0.00002  -0.01717  -0.05157   0.04897  -0.02902
  56  N 4   d 5      0.00608  -0.00002   0.02147   0.02199   0.00086   0.00235
                        25        26        27        28        29        30
 eigenvalues:          0.624     0.655     0.658     0.667     0.675     0.777
   1  N 1   s        0.00123  -0.00087   0.02351   0.02169  -0.02224  -0.00020
   2  N 1   s       -0.01005   0.01138  -0.15318  -0.14787   0.17593  -0.03150
   3  N 1   s        0.01293  -0.03180  -0.01430   0.01106  -0.07790   0.02630
   4  N 1   px       0.24041   0.25147  -0.33658   0.25895   0.15317  -0.33864
   5  N 1   py      -0.36884   0.18105   0.18074  -0.25774   0.27148   0.31922
   6  N 1   pz       0.09740  -0.43323  -0.17542  -0.28721  -0.17673   0.02283
   7  N 1   px      -0.31061  -0.31529   0.53725  -0.00934  -0.26828   0.83479
   8  N 1   py       0.47357  -0.19840   0.09234   0.46716  -0.46288  -0.82293
   9  N 1   pz      -0.13044   0.49144   0.31350   0.37492  -0.07462  -0.01727
  10  N 1   d 1      0.01849  -0.06549   0.00313  -0.01502  -0.04634  -0.00457
  11  N 1   d 2      0.03828   0.03322  -0.01620   0.06146  -0.00829   0.01239
  12  N 1   d 3     -0.01422   0.05425   0.01928   0.03965   0.04857  -0.00579
  13  N 1   d 4     -0.05236   0.02139   0.05728  -0.00149   0.00241  -0.02497
  14  N 1   d 5     -0.04648  -0.00134   0.05185  -0.04784   0.00590  -0.01670
  15  N 2   s        0.00230  -0.00673  -0.02184  -0.02562  -0.01892   0.00004
  16  N 2   s       -0.01470   0.04623   0.14380   0.17640   0.14906  -0.03505
  17  N 2   s        0.01186  -0.01721   0.01902  -0.01851  -0.06489   0.03968
  18  N 2   px      -0.23081  -0.37947  -0.22849   0.19748  -0.20222   0.34477
  19  N 2   py       0.35826  -0.08054   0.24631  -0.31269  -0.22204  -0.32488
  20  N 2   pz       0.08518  -0.36561   0.32853   0.21500  -0.20914   0.02358
  21  N 2   px       0.29457   0.48182   0.39643   0.07448   0.27877  -0.84980
  22  N 2   py      -0.47126   0.16865   0.00365   0.55955   0.37874   0.83369
  23  N 2   pz      -0.10603   0.37899  -0.47792  -0.34818  -0.03221  -0.02718
  24  N 2   d 1      0.01854  -0.06307   0.02080   0.00003  -0.04747  -0.00422
  25  N 2   d 2     -0.03876  -0.04190  -0.00398   0.05750  -0.00106  -0.01309
  26  N 2   d 3     -0.01328   0.04842  -0.03951  -0.02544   0.05238  -0.00483
  27  N 2   d 4      0.05014   0.00166   0.06444  -0.00369   0.00066   0.02393
  28  N 2   d 5     -0.04458  -0.02397  -0.04863   0.04608  -0.00245  -0.01673
  29  N 3   s        0.00104   0.00820   0.02251  -0.01885   0.02424  -0.00133
  30  N 3   s       -0.01131  -0.06893  -0.14793   0.14253  -0.17890  -0.00510
  31  N 3   s        0.02846   0.02197  -0.01274  -0.04949   0.07758  -0.01102
  32  N 3   px      -0.24254  -0.19688   0.29739   0.26284   0.27612  -0.35314
  33  N 3   py      -0.36730   0.06067   0.19371   0.25734  -0.31194  -0.31186
  34  N 3   pz      -0.10211   0.36034   0.20927  -0.23960  -0.30720   0.02773
  35  N 3   px       0.32443   0.18932  -0.49327  -0.02802  -0.41577   0.86903
  36  N 3   py       0.47323   0.01015   0.06953  -0.43385   0.51304   0.81063
  37  N 3   pz       0.13601  -0.50761  -0.33622   0.30514   0.07236  -0.02942
  38  N 3   d 1     -0.01842   0.04425   0.00361  -0.00904  -0.06921   0.01014
  39  N 3   d 2     -0.04060  -0.03841   0.01483   0.06016   0.00500   0.02731
  40  N 3   d 3     -0.01365   0.03714   0.02452  -0.03417  -0.06373   0.00535
  41  N 3   d 4     -0.05074   0.01995   0.05695   0.00790  -0.00370   0.01188
  42  N 3   d 5     -0.04516  -0.00599   0.05153   0.05328   0.00033   0.01662
  43  N 4   s        0.00223  -0.00230  -0.02423   0.02330   0.01988  -0.00124
  44  N 4   s       -0.01680   0.00397   0.16763  -0.17281  -0.14827  -0.00366
  45  N 4   s        0.02806   0.01675  -0.00069   0.05950   0.07634  -0.02296
  46  N 4   px       0.23486   0.26441   0.23335   0.23774  -0.31423   0.34217
  47  N 4   py       0.35787  -0.01448   0.21141   0.30609   0.25957   0.31519
  48  N 4   pz      -0.09843   0.24161  -0.32014   0.21620  -0.35354   0.01079
  49  N 4   px      -0.30914  -0.34843  -0.42427   0.01262   0.40460  -0.84309
  50  N 4   py      -0.47868   0.05954   0.05589  -0.51927  -0.41812  -0.82097
  51  N 4   pz       0.12876  -0.32068   0.49166  -0.33300   0.13605   0.00986
  52  N 4   d 1     -0.01761   0.04035  -0.01569   0.00090  -0.07134   0.01077
  53  N 4   d 2      0.03975   0.03510   0.00098   0.06281  -0.01510  -0.02662
  54  N 4   d 3     -0.01378   0.02392  -0.03526   0.02393  -0.06868   0.00582
  55  N 4   d 4      0.04867   0.00094   0.06375   0.00760   0.00379  -0.01137
  56  N 4   d 5     -0.04458  -0.01933  -0.04853  -0.05414   0.00740   0.01721
                        31        32        33        34        35        36
 eigenvalues:          0.782     0.786     0.797     1.155     1.166     1.176
   1  N 1   s        0.01127  -0.00114   0.00068  -0.01630   0.01694   0.02391
   2  N 1   s        0.51853   0.03396   0.00116  -0.33839   0.33575   0.44158
   3  N 1   s       -0.24947  -0.02697  -0.01378   0.87160  -0.88049  -1.19795
   4  N 1   px      -0.07135  -0.07925   0.32321  -0.02248  -0.00327   0.02631
   5  N 1   py      -0.03204  -0.30883  -0.04844   0.00085   0.01694   0.02199
   6  N 1   pz      -0.06891   0.40914  -0.28976  -0.02759   0.03363   0.00354
   7  N 1   px       0.19932   0.14485  -0.79665  -0.15309   0.36727   0.25200
   8  N 1   py       0.10745   0.79273   0.13861  -0.34705   0.17532   0.22301
   9  N 1   pz       0.19055  -0.97725   0.68815  -0.16458   0.12982   0.44268
  10  N 1   d 1      0.16878  -0.01891   0.01636  -0.11020   0.12701  -0.05638
  11  N 1   d 2      0.16609   0.00233  -0.01907  -0.12470  -0.08142   0.09250
  12  N 1   d 3     -0.00573   0.01146  -0.01127  -0.16596   0.24175  -0.33406
  13  N 1   d 4      0.15980   0.02153   0.00453   0.08107   0.09213   0.12289
  14  N 1   d 5     -0.00272   0.01489   0.01516  -0.33422  -0.29485  -0.04831
  15  N 2   s        0.01099   0.00150  -0.00048   0.01541  -0.02310   0.01885
  16  N 2   s        0.52506  -0.00935   0.00588   0.32027  -0.45463   0.34728
  17  N 2   s       -0.26260   0.02068   0.00474  -0.83177   1.19367  -0.93942
[...]
    14   -1.473238549344e-01
    15   -2.537877855043e-02
    16   -8.198635157200e-02
    17    5.750587079767e-01
    18    8.738196390268e-02
    19    1.183626518816e-02
    20   -9.416994657326e-02
    21    2.902437593864e-02
    22    3.242082821853e-01
    23   -1.138206511141e-02
    24    1.916462699822e-01
    25    2.803845648511e-01
    26    1.006812432375e-01
    27   -2.783608803446e-01
    28    2.381869807255e-01
    29    2.852285212307e-02
    30    1.205123218066e-01
    31   -6.457258351581e-01
    32   -8.049611521098e-02
    33    5.643744436204e-03
    34   -8.991257290573e-02
    35   -6.761514748071e-02
    36    3.413403861746e-01
    37   -2.759633639407e-02
    38   -3.134422873441e-01
    39    3.386756336341e-01
    40   -1.075000543944e-01
    41    1.921651560237e-01
    42    3.199419824249e-01
    43   -3.742273832070e-02
    44   -1.305435154296e-01
    45    8.584743997505e-01
    46   -1.212139008838e-01
    47    4.698226932820e-02
    48    1.041695340494e-01
    49   -7.565745176984e-02
    50    3.524132920385e-01
    51    1.240372307488e-01
    52    3.414349793519e-01
    53    3.177633482496e-01
    54   -1.016763862925e-01
    55   -2.179254276877e-01
    56   -2.189156568119e-01
Sym=X
Ene= 2.012623
Spin=Beta 
Occup=0
     1    6.315496728320e-02
     2    2.615408613938e-01
     3   -1.481701892235e+00
     4    1.089699985108e-01
     5    1.544671335247e-01
     6    1.745477405811e-01
     7    4.570994439348e-01
     8    2.719729933129e-01
     9    2.310047923274e-01
    10    3.473934442921e-01
    11   -6.189472763940e-02
    12    2.400346064830e-01
    13    1.104282836347e-02
    14    1.779199446473e-01
    15   -3.906791942901e-02
    16   -1.532495266979e-01
    17    9.033255315952e-01
    18    3.599182229564e-02
    19    8.636860319214e-02
    20   -1.578733578534e-01
    21    4.018897988568e-01
    22    2.135892146022e-01
    23    3.439543165080e-02
    24   -4.128824551595e-01
    25    1.719831793522e-02
    26    2.499153819866e-01
    27    6.015647307768e-02
    28    4.703110953260e-02
    29   -3.282758945196e-02
    30   -1.360933643339e-01
    31    7.856120443135e-01
    32    1.786294737342e-02
    33   -1.349479525146e-01
    34    7.766418011809e-02
    35    3.961391946713e-01
    36    6.665179854532e-02
    37    1.751615668550e-01
    38   -3.805272320516e-02
    39    3.581889703584e-01
    40    4.550262106678e-01
    41   -1.093473598885e-01
    42    9.286423969420e-02
    43    9.033470421320e-03
    44    3.964169640908e-02
    45   -2.121797793748e-01
    46   -5.651145511317e-02
    47   -6.275688422548e-02
    48   -5.453732841207e-02
    49    3.413215141315e-01
    50    1.171000961263e-01
    51    8.704233200528e-02
    52    8.094420505459e-02
    53    2.747818478456e-01
    54    4.719567542348e-01
    55    3.606488151552e-02
    56    1.439759826869e-01
Sym=X
Ene= 2.015630
Spin=Beta 
Occup=0
     1    1.211770916747e-02
     2    6.336551677345e-02
     3   -2.603743760707e-01
     4    7.543745417749e-02
     5   -5.481696871082e-02
     6    3.746539711856e-02
     7   -1.532962747013e-01
     8    3.468027871548e-01
     9   -1.155321952336e-02
    10    1.561282634966e-01
    11    4.446073374043e-01
    12   -3.872117004437e-01
    13   -5.468089219182e-02
    14   -6.038553954555e-03
    15   -1.910647750541e-02
    16   -5.128753154426e-02
    17    4.381514017461e-01
    18    1.131814332302e-01
    19   -1.496135528841e-02
    20   -6.204092425688e-02
    21   -1.464796128193e-01
    22    3.497986746175e-01
    23   -6.552756591982e-02
    24   -1.397104404655e-01
    25    4.218325366599e-01
    26   -3.848611518633e-01
    27    3.738255028248e-02
    28   -7.728851558666e-02
    29    6.098712434191e-02
    30    2.646145662143e-01
    31   -1.418036819958e+00
    32   -1.312172742377e-01
    33    9.006290605814e-02
    34   -1.725183758703e-01
    35   -3.198313059826e-01
    36    4.540474567651e-01
    37   -1.634417866383e-01
    38    3.512891253086e-01
    39    2.432887078972e-01
    40    2.690372633133e-03
    41   -2.488738336781e-02
    42   -7.168451273277e-02
    43   -5.177828254609e-02
    44   -1.818486401253e-01
    45    1.201620401273e+00
    46   -1.200053402678e-01
    47    8.615516507223e-02
    48    1.821427677390e-01
    49   -2.869377368507e-01
    50    4.206109837192e-01
    51    5.342376114964e-02
    52   -3.786665403784e-01
    53    2.738088435051e-01
    54   -1.787084929404e-02
    55    5.129469891576e-02
    56    8.556883895117e-03
Sym=X
Ene= 2.150604
Spin=Beta 
Occup=0
     1    2.025265049320e-02
     2    8.593532141979e-01
     3   -3.387108681340e-01
     4   -2.913497883922e-01
     5   -2.861993384640e-01
     6   -2.941995015801e-01
     7    2.886594358027e-01
     8    2.720143501166e-01
     9    2.972371967426e-01
    10   -1.104400513030e-02
    11   -2.018956818672e-01
    12   -1.717484648693e-01
    13   -9.085461126556e-03
    14   -1.525003315099e-01
    15    2.248271986806e-02
    16    8.593065891143e-01
    17   -3.829650002542e-01
    18    2.799573322886e-01
    19    2.803715029365e-01
    20   -2.883533132624e-01
    21   -2.846637885765e-01
    22   -2.940287988934e-01
    23    3.010164124604e-01
    24   -9.570372490683e-03
    25    1.683260812344e-01
    26    1.834366182947e-01
    27   -6.455425088491e-04
    28   -1.566218200713e-01
    29    1.846404367657e-02
    30    8.612171646679e-01
    31   -3.044272412424e-01
    32    3.006596000173e-01
    33   -2.892873194807e-01
    34    2.996412428860e-01
    35   -2.889255844424e-01
    36    2.679424890873e-01
    37   -2.846595223665e-01
    38   -6.895301004439e-03
    39   -1.988392230137e-01
    40    1.678099361628e-01
    41   -1.183916861303e-02
    42    1.732751872242e-01
    43    2.129395340288e-02
    44    8.632831830610e-01
    45   -3.625621928262e-01
    46   -2.880645991227e-01
    47    2.873719084809e-01
    48    2.868937610405e-01
    49    2.913571935057e-01
    50   -2.969254616605e-01
    51   -2.847452957239e-01
    52    2.585424537199e-03
    53    1.646592588918e-01
    54   -1.749105914808e-01
    55   -7.209475188218e-04
    56    1.817705122816e-01
Sym=X
Ene= 2.289152
Spin=Beta 
Occup=0
     1   -4.088946813939e-04
     2    5.178040401370e-03
     3    4.076843582940e-03
     4    6.147498372253e-02
     5   -9.043060302165e-02
     6    2.356654869301e-02
     7   -1.350628964878e-01
     8    1.872839248995e-01
     9   -5.442903111303e-02
    10    1.593122452217e-01
    11   -7.609082779985e-02
    12    5.644613482480e-02
    13    5.573410075219e-01
    14    2.177733146401e-02
    15   -1.834444519007e-04
    16    1.055323018506e-02
    17   -5.362581232744e-03
    18   -5.962999637275e-02
    19    9.027156086170e-02
    20    2.067593987155e-02
    21    1.312322131760e-01
    22   -1.907990704920e-01
    23   -4.966691062839e-02
    24    1.624406367965e-01
    25    7.742284840871e-02
    26   -4.649383085933e-02
    27    5.570466291889e-01
    28    2.436372118415e-02
    29   -2.847425807954e-04
    30    7.803893717780e-03
    31   -1.850360826888e-03
    32   -6.103807724924e-02
    33   -9.099518072763e-02
    34   -2.238329823079e-02
    35    1.343945614133e-01
    36    1.911692151506e-01
    37    5.010850147876e-02
    38    1.597704450637e-01
    39   -8.156991289232e-02
    40   -5.390862909026e-02
    41    5.696305427608e-01
    42   -1.810620673191e-02
    43   -1.915455698461e-04
    44    1.248222636037e-02
    45   -8.276611025799e-03
    46    5.866625934528e-02
    47    9.007281675302e-02
    48   -2.148449141428e-02
    49   -1.318493874157e-01
    50   -1.932796501245e-01
    51    5.038539668423e-02
    52    1.603297235297e-01
    53    8.158647238280e-02
    54    6.057637936562e-02
    55    5.675103989337e-01
    56   -1.870204941290e-02
Sym=X
Ene= 2.306884
Spin=Beta 
Occup=0
     1   -3.765858106949e-04
     2    3.925977816643e-03
     3    1.797091111846e-04
     4   -6.188178615377e-02
     5   -2.166504154732e-02
     6    8.170136840330e-02
     7    1.395830128559e-01
     8    4.714576882316e-02
     9   -1.872588026477e-01
    10    5.713584365841e-01
    11   -1.804087232465e-02
    12   -5.349814434790e-02
    13   -1.620694502360e-01
    14    7.468780374903e-02
    15   -4.016036569487e-04
    16    4.392652817253e-03
    17    6.510558880990e-04
    18    6.342250638369e-02
    19    2.238926324539e-02
    20    8.116152520703e-02
    21   -1.397033012628e-01
    22   -4.893989848931e-02
    23   -1.853554629781e-01
    24    5.610585571339e-01
    25    2.306079529920e-02
    26    5.500877717514e-02
    27   -1.570524064486e-01
    28    6.937217943155e-02
    29   -2.064365794471e-04
    30    6.220961086692e-03
    31   -2.218526462863e-03
    32    6.350982388702e-02
    33   -2.347017449242e-02
    34   -8.038715001067e-02
    35   -1.407298245304e-01
    36    4.918116335767e-02
    37    1.857958958035e-01
    38    5.701553387462e-01
    39   -1.435045676481e-02
    40    6.320292835960e-02
    41   -1.661629407409e-01
    42   -7.589711226367e-02
    43   -1.935082449917e-04
    44    7.945893904913e-03
    45   -4.976325066157e-03
    46   -6.461680071070e-02
    47    2.265781764890e-02
    48   -8.041017716541e-02
    49    1.422458806066e-01
    50   -4.806885823915e-02
    51    1.841961370861e-01
    52    5.620411632074e-01
    53    2.110960174112e-02
    54   -4.853467625238e-02
    55   -1.603077950772e-01
    56   -6.988209059156e-02
Sym=X
Ene= 2.638597
Spin=Beta 
Occup=0
     1   -3.758463103237e-03
     2   -3.347146356542e-02
     3    8.319144814332e-02
     4    1.539246706520e-01
     5   -1.787818572669e-01
     6    2.872781407981e-02
     7    3.241407097119e-01
     8   -4.392726288972e-01
     9    3.785836534152e-02
    10   -3.972333716640e-02
    11   -2.199542638630e-01
    12    2.047481193060e-01
    13   -2.677168782278e-01
    14    4.221536442861e-02
    15    2.128410223549e-02
    16    1.571825505404e-01
    17   -6.274946837342e-01
    18    1.489422066685e-01
    19   -1.804015513431e-01
    20    2.520122068469e-02
    21    1.890689026853e-01
    22   -5.664952444023e-01
    23    2.068792127885e-01
    24   -7.674882302525e-03
    25   -1.181073231533e-01
    26    3.084318223321e-01
    27    2.622469821144e-01
    28   -8.319252105211e-02
    29   -1.349966827161e-01
    30   -9.864645880442e-01
    31    3.939458483186e+00
    32    1.531704968302e-01
    33   -1.828196087587e-01
    34    2.600095335769e-02
    35    1.295299893776e+00
    36   -1.357047135364e+00
    37    1.009721959360e+00
    38   -1.306124572894e-01
    39    4.940166205960e-01
    40   -5.229302992292e-01
    41   -2.169672671680e-02
    42   -6.833776043811e-01
    43    1.158186451590e-01
    44    8.490359156613e-01
    45   -3.389678144608e+00
    46    1.513705836813e-01
    47   -1.834268745787e-01
    48    2.466755954488e-02
    49    1.155939026783e+00
    50   -1.235001665876e+00
    51   -7.624340459299e-01
    52    1.786899594809e-01
    53    3.882953110497e-01
    54   -4.282158455549e-01
    55    2.977190723611e-02
    56    6.492810356054e-01
Sym=X
Ene= 2.641467
Spin=Beta 
Occup=0
     1   -1.471908200583e-01
     2   -1.071570702468e+00
     3    4.302134340489e+00
     4   -9.923515002072e-02
     5   -1.062246725539e-01
     6   -1.953518961995e-01
     7   -1.257487955079e+00
     8   -1.282444068866e+00
     9   -1.463115682257e+00
    10    7.079753646931e-02
    11    6.587233807384e-01
    12    6.676780303658e-01
    13   -1.207450847406e-02
    14    5.396602873200e-01
    15    4.266671413874e-03
    16    3.686663063197e-02
    17   -1.028730185791e-01
    18   -9.080155406087e-02
    19   -1.002814660265e-01
    20   -1.891736318361e-01
    21   -2.362261871436e-01
    22   -2.630397558683e-01
    23   -3.950592831655e-01
    24    2.596286211788e-01
    25   -1.145707918263e-01
    26   -1.018124236741e-01
    27    9.373227063698e-03
    28   -2.636894960752e-01
    29    6.833738264054e-02
    30    4.911735090738e-01
    31   -2.010568509055e+00
    32   -1.019215742893e-01
    33   -1.031799014584e-01
    34   -1.945139626228e-01
    35   -7.110742922486e-01
    36    2.325254580239e-01
    37   -9.173756369103e-01
    38   -1.745237956139e-01
    39   -5.105440047302e-01
    40    2.394313935680e-01
    41   -1.647201958755e-01
    42    1.151090681728e-01
    43    7.516217071551e-02
    44    5.485832925192e-01
    45   -2.189909104885e+00
    46   -9.450149433545e-02
    47   -1.067262728450e-01
    48   -1.893043044204e-01
    49    3.121247319918e-01
    50   -7.740714855557e-01
    51   -9.519576709936e-01
    52   -1.596766945448e-01
    53    2.664136665764e-01
    54   -5.256926446956e-01
    55    1.627620259704e-01
    56    1.544389622371e-01
Sym=X
Ene= 2.642955
Spin=Beta 
Occup=0
     1    4.911634252531e-02
     2    3.646175580096e-01
     3   -1.399405035490e+00
     4    1.510749256267e-01
     5    1.045782434668e-01
     6   -1.404616550918e-01
     7    6.899639259863e-01
     8    5.890986875237e-01
     9    2.338059872376e-02
    10    2.450438603423e-01
    11   -1.112911961721e-01
    12   -4.675822233942e-02
    13   -3.245188415705e-02
    14   -4.369981036451e-01
    15   -1.534032220886e-01
    16   -1.122487623297e+00
    17    4.467438766461e+00
    18    1.550807642476e-01
    19    1.101737168379e-01
    20   -1.429914430133e-01
    21    1.429332679139e+00
    22    1.324769368006e+00
    23   -1.409281845089e+00
    24    1.052975028090e-02
    25   -6.880119419072e-01
    26   -6.218696956325e-01
    27    3.228632105475e-02
    28    6.286823898721e-01
    29    3.543666009428e-02
    30    2.591833574718e-01
    31   -1.020273804261e+00
    32    1.571761844495e-01
    33    1.096701058445e-01
    34   -1.395884387242e-01
    35    1.119892831961e-01
    36    5.005961586055e-01
    37   -5.633445729659e-01
    38   -1.471204218300e-01
    39   -4.447401787080e-02
    40    3.935686493815e-01
    41    2.115012980208e-01
    42    2.771090381054e-03
    43    7.072302406108e-02
    44    5.141650868933e-01
    45   -2.053235907961e+00
    46    1.575126887119e-01
    47    1.075862444854e-01
    48   -1.406711001187e-01
    49    8.562352026405e-01
    50   -2.411105469347e-01
    51   -8.137013483450e-01
    52   -1.030815103359e-01
    53    5.248053741247e-01
    54   -1.699667784685e-01
    55   -2.104234331982e-01
    56    1.922349753061e-01
Sym=X
Ene= 2.850136
Spin=Beta 
Occup=0
     1    2.936875590137e-04
     2    1.325801838695e-02
     3   -1.662964775318e-02
     4    6.185977981424e-02
     5    9.165434406420e-03
     6   -8.205759694614e-02
     7    4.776891413998e-01
     8    1.012978922157e-01
     9   -5.637803049316e-01
    10    4.867765465431e-01
    11    1.018524381668e-01
    12    4.899023502435e-01
    13   -1.876847155314e-01
    14   -5.874809134240e-01
    15   -2.869059396537e-04
    16   -1.146675182207e-02
    17    1.525131252273e-02
    18    4.578296577611e-02
    19    2.688918478758e-02
    20    8.087155013991e-02
    21    3.550782301889e-01
    22    2.279018284745e-01
    23    5.581788111708e-01
    24   -4.938428556678e-01
    25    2.172497503385e-01
    26    3.537118924053e-01
    27    6.219280837798e-02
    28    5.893223970118e-01
    29   -2.257993642567e-05
    30   -1.629076988341e-03
    31    1.911251788274e-03
    32   -4.930374589530e-02
    33   -1.227953915984e-02
    34    3.623709167549e-02
    35   -3.484223125756e-01
    36   -9.601725859799e-02
    37    2.558862534370e-01
    38    2.240497508656e-01
    39   -9.723572917302e-02
    40   -3.594782314447e-01
    41   -2.235486749593e-01
    42    2.592556756804e-01
    43    1.304677480174e-05
    44    3.547445328301e-04
    45   -6.896208215435e-04
    46   -6.574984466914e-02
    47   -2.959412239845e-02
    48   -3.611467116580e-02
    49   -4.696501271481e-01
    50   -2.210454547317e-01
    51   -2.492885863546e-01
    52   -2.128589426591e-01
    53   -2.230547715985e-01
    54   -4.846857015653e-01
    55    3.466197421135e-01
    56   -2.617903052103e-01
Sym=X
Ene= 2.852077
Spin=Beta 
Occup=0
     1   -2.005399884216e-04
     2   -7.786033364800e-03
     3    9.914133040095e-03
     4    6.701635374180e-04
     5   -2.387110428739e-02
     6    2.974706035779e-02
     7   -2.027434336488e-02
     8   -1.854881932330e-01
     9    1.964966721676e-01
    10   -1.684938227913e-01
    11   -1.861632291573e-01
    12   -2.197731739275e-02
    13   -8.671476791951e-02
    14    2.064598936609e-01
    15    2.545860412313e-04
    16    4.900981091756e-03
    17   -9.818471368897e-03
    18    5.113748712528e-02
    19   -7.625669604448e-02
    20   -2.822261858366e-02
    21    3.527693583178e-01
    22   -5.602492350708e-01
    23   -1.947882781611e-01
    24    1.717201140257e-01
    25   -5.687049028679e-01
    26    3.692501553354e-01
    27    4.532663663507e-01
    28   -2.064555655304e-01
    29   -4.671623947089e-05
    30    2.725115249070e-03
    31   -1.616109832200e-03
    32   -4.952493975467e-02
    33    2.499026436815e-02
    34    7.831326789838e-02
    35   -3.576061724701e-01
    36    1.831137266908e-01
    37    5.361156011277e-01
    38    4.628586969854e-01
    39    1.860948700524e-01
    40   -3.651846159890e-01
    41   -8.697019240631e-02
    42    5.554170224624e-01
    43    2.245625290842e-05
    44   -9.269094241392e-04
    45    1.740204667682e-03
    46    1.162437751806e-03
    47    7.660294168754e-02
    48   -7.766339284205e-02
    49    1.614574052592e-02
    50    5.551105238434e-01
    51   -5.373349009475e-01
    52   -4.639041094536e-01
    53    5.710181761557e-01
    54    1.649645614960e-02
    55   -2.816641269828e-01
    56   -5.526527171555e-01
Sym=X
Ene= 2.855841
Spin=Beta 
Occup=0
     1    1.634604091263e-04
     2    1.345192773553e-02
     3   -1.315798713412e-02
     4   -6.484513175002e-02
     5    8.149499657094e-02
     6   -3.035673147261e-02
     7   -4.153943686516e-01
     8    6.044448402191e-01
     9   -1.773724872851e-01
    10    1.573463059763e-01
    11    6.153906414966e-01
    12   -4.262793726775e-01
    13    5.094060906017e-01
    14   -1.823768951591e-01
    15    1.495331441546e-05
    16   -3.188325916427e-03
    17    1.483649009730e-03
    18    5.380697959384e-02
    19   -2.961915622220e-02
    20    2.697669867763e-02
    21    3.877083857275e-01
    22   -2.026776566621e-01
    23    1.799472530024e-01
    24   -1.575479863451e-01
    25   -2.141910276144e-01
    26    3.965597521533e-01
    27    2.884452627149e-01
    28    1.878020459035e-01
    29   -9.814944303867e-05
    30   -1.111388383511e-02
    31    1.061315886784e-02
    32   -5.870771267442e-02
    33   -8.338147849576e-02
    34   -3.439565345737e-02
    35   -3.835524109496e-01
    36   -6.097311438932e-01
    37   -2.048643491786e-01
    38   -1.775681788385e-01
    39   -6.125760612299e-01
    40   -4.037691291697e-01
    41   -4.882914528733e-01
    42   -2.268640409511e-01
    43   -4.341196585117e-05
    44   -7.116333568119e-04
    45    1.440735327343e-03
    46    6.062893727691e-02
    47    2.910984112428e-02
    48    3.132312351896e-02
    49    4.200968441374e-01
    50    2.103242388124e-01
    51    2.113564965736e-01
    52    1.780267435512e-01
    53    2.103368792078e-01
    54    4.308382019457e-01
    55   -3.125942160984e-01
    56    2.200622131856e-01
[5D]

======= END OF MOLDEN-FORMATTED INPUT FILE =======


        *************************************************************
        *                                                           *
        *  Thank you very much for using Q-Chem.  Have a nice day.  *
        *                                                           *
        *************************************************************


0 sent ACK to 0 
now end server 0 ... 
