[Molden Format]
[Title]
 Molden file created by orca_2mkl for BaseName=./methane

[Atoms] AU
C    1   6          0.0000000000         0.0000000000         0.0000000000 
H    2   1          1.1888607259         1.1888607259         1.1888607259 
H    3   1         -1.1888607259        -1.1888607259         1.1888607259 
H    4   1          1.1888607259        -1.1888607259        -1.1888607259 
H    5   1         -1.1888607259         1.1888607259        -1.1888607259 
[GTO]
  1 0
f   3 1.0 
       60.0434382795       427.8468937105
       22.1675054852        42.5113982940
        4.8023959699       194.1588225094
f   1 1.0 
        1.4833907695        13.8460251713
f   1 1.0 
        0.4617895271         1.0023035251
f   1 1.0 
        0.3024922807         0.3869075870
f   1 1.0 
        0.0902841222         0.0254756741

  2 0
f   3 1.0 
       10.1787046997         0.7149026790
        2.3952640718        -4.5166241271
        1.0486496863         6.8087601446
f   1 1.0 
        0.7201895699         2.7243032026
f   1 1.0 
        0.3328151500         0.4796859807
f   1 1.0 
        0.1216647326         0.0498448929

  3 0
f   3 1.0 
       10.1787046997         0.7149026790
        2.3952640718        -4.5166241271
        1.0486496863         6.8087601446
f   1 1.0 
        0.7201895699         2.7243032026
f   1 1.0 
        0.3328151500         0.4796859807
f   1 1.0 
        0.1216647326         0.0498448929

  4 0
f   3 1.0 
       10.1787046997         0.7149026790
        2.3952640718        -4.5166241271
        1.0486496863         6.8087601446
f   1 1.0 
        0.7201895699         2.7243032026
f   1 1.0 
        0.3328151500         0.4796859807
f   1 1.0 
        0.1216647326         0.0498448929

  5 0
f   3 1.0 
       10.1787046997         0.7149026790
        2.3952640718        -4.5166241271
        1.0486496863         6.8087601446
f   1 1.0 
        0.7201895699         2.7243032026
f   1 1.0 
        0.3328151500         0.4796859807
f   1 1.0 
        0.1216647326         0.0498448929

[5D]
[9G]
[MO]
 Sym=     1a
 Ene= -3.09417319765242E+00
 Spin= Alpha
 Occup= 2.000000
  1       0.000000000163
  2      -0.000000000099
  3       0.000000000043
  4       0.000000000068
  5      -0.000519260490
  6      -0.000000000024
  7       0.000000000016
  8      -0.000000002178
  9       0.000000000963
 10      -0.000000000845
 11      -0.000000000938
 12       0.082580299158
 13      -0.000000000547
 14       0.000000001104
 15       0.000000010443
 16      -0.000000003691
 17      -0.000000003546
 18       0.000000002206
 19      -0.076992638377
 20      -0.000000001233
 21       0.000000004362
 22      -0.000000014245
 23       0.000000002118
 24       0.000000003194
 25       0.000000001267
 26      -0.474488748039
 27       0.000000004645
 28      -0.000000004138
 29       0.000000019570
 30      -0.000000001007
 31       0.000000003510
 32       0.000000000200
 33       1.280674371798
 34      -0.000000001659
 35      -0.000000003805
 36      -0.192711684903
 37       0.117886476846
 38       0.118125672853
 39      -0.000157919251
 40       0.311603187549
 41       0.152448669188
 42      -0.152499588086
 43       0.297398200594
 44      -0.182098567559
 45      -0.182420125463
 46       0.000025158464
 47      -0.475469800968
 48      -0.235129326729
 49       0.235503370601
 50       0.017958282606
 51      -0.011187239228
 52      -0.010950454485
 53      -0.000240438151
 54       0.088808867209
 55      -0.014050032114
 56       0.014136980354
 57       0.050080815952
 58      -0.030761431209
 59      -0.030483298301
 60      -0.000118039423
 61      -0.640197181358
 62      -0.039520085284
 63       0.039353775504
 64      -0.192711689624
 65      -0.117886477811
 66      -0.118125669874
 67      -0.000157919293
 68       0.311603194691
 69      -0.152448674111
 70       0.152499589549
 71       0.297398209244
 72       0.182098567743
 73       0.182420120586
 74       0.000025159515
 75      -0.475469812245
 76       0.235129335071
 77      -0.235503374119
 78       0.017958281247
 79       0.011187244113
 80       0.010950459416
 81      -0.000240436755
 82       0.088808867709
 83       0.014050032025
 84      -0.014136975416
 85       0.050080816890
 86       0.030761435964
 87       0.030483294175
 88      -0.000118039648
 89      -0.640197181129
 90       0.039520087960
 91      -0.039353768331
 92       0.192711686987
 93       0.117886481822
 94      -0.118125675877
 95       0.000157920839
 96       0.311603189037
 97       0.152448670630
 98       0.152499584842
 99      -0.297398201425
100      -0.182098578079
101       0.182420133208
102      -0.000025161672
103      -0.475469802209
104      -0.235129329905
105      -0.235503366210
106      -0.017958289946
107      -0.011187242005
108       0.010950453871
109       0.000240441255
110       0.088808851888
111      -0.014050034115
112      -0.014136982367
113      -0.050080835999
114      -0.030761437638
115       0.030483298283
116       0.000118040803
117      -0.640197177929
118      -0.039520081564
119      -0.039353767128
120       0.192711687201
121      -0.117886483378
122       0.118125675471
123       0.000157916167
124       0.311603194397
125      -0.152448669619
126      -0.152499591255
127      -0.297398202063
128       0.182098580142
129      -0.182420132015
130      -0.000025153378
131      -0.475469810835
132       0.235129327243
133       0.235503377050
134      -0.017958288461
135       0.011187240614
136      -0.010950459381
137       0.000240432762
138       0.088808855419
139       0.014050038056
140       0.014136978331
141      -0.050080828795
142       0.030761435309
143      -0.030483301493
144       0.000118036381
145      -0.640197181324
146       0.039520081445
147       0.039353766650
 Sym=     1a
 Ene= -5.00181801359845E-01
 Spin= Alpha
 Occup= 2.000000
  1      -0.000000009182
  2      -0.000000004279
  3      -0.000999767607
  4      -0.000000000093
  5      -0.000000000352
  6      -0.000000005615
  7       0.001290694425
  8       0.000000015299
  9       0.000000003968
 10       0.001738803880
 11       0.000000000302
 12       0.000000000371
 13       0.000000012454
 14      -0.002244786429
 15      -0.000000821299
 16      -0.000000387641
 17      -0.085431164489
 18      -0.000000018800
 19      -0.000000020001
 20      -0.000000494815
 21       0.110291157690
 22       0.000000062395
 23       0.000000020032
 24       0.021612295876
 25      -0.000000012664
 26      -0.000000037903
 27       0.000000129333
 28      -0.027901360700
 29       0.000000807902
 30       0.000000281984
 31       0.062973534830
 32       0.000000023172
 33       0.000000060577
 34       0.000000431250
 35      -0.081298476298
 36       0.028578863376
 37      -0.038987224787
 38      -0.004244974734
 39      -0.027178173295
 40      -0.126645908058
 41      -0.005950106343
 42       0.005479829439
 43      -0.076891645568
 44       0.078669103569
 45       0.023691775165
 46       0.039949293341
 47       0.288400191967
 48       0.036323845002
 49      -0.030585347278
 50       0.061984589561
 51       0.088101692874
 52       0.011299887266
 53       0.159451832571
 54      -0.303902068666
 55      -0.146647435470
 56      -0.014585629600
 57       0.149887900470
 58      -0.010166375894
 59      -0.011693746664
 60       0.103241210371
 61       0.117217135039
 62      -0.181718551748
 63       0.015098188816
 64      -0.028578929956
 65      -0.038987185302
 66      -0.004244936162
 67       0.027178175354
 68       0.126647201656
 69      -0.005950492915
 70       0.005480214345
 71       0.076892037979
 72       0.078669267867
 73       0.023691944255
 74      -0.039949296164
 75      -0.288403153718
 76       0.036324698385
 77      -0.030586198666
 78      -0.061984458366
 79       0.088100020172
 80       0.011298185554
 81      -0.159451854612
 82       0.303905239917
 83      -0.146646881790
 84      -0.014586189988
 85      -0.149888292302
 86      -0.010168220525
 87      -0.011695607796
 88      -0.103241223230
 89      -0.117218346058
 90      -0.181719124932
 91       0.015098754005
 92       0.028578629509
 93       0.038987183374
 94      -0.004244648226
 95      -0.027178410221
 96       0.126644844510
 97       0.005950051199
 98       0.005479791035
 99      -0.076891009909
100      -0.078668893648
101       0.023691114703
102       0.039949647685
103      -0.288397768622
104      -0.036323565729
105      -0.030585066545
106       0.061984111884
107      -0.088101621223
108       0.011299142413
109       0.159453195503
110       0.303899530920
111       0.146647537254
112      -0.014586841152
113       0.149886590768
114       0.010166285305
115      -0.011693611541
116       0.103242058551
117      -0.117216183840
118       0.181718395257
119       0.015096595580
120      -0.028578711914
121       0.038987155438
122      -0.004244607458
123       0.027178413947
124      -0.126646149536
125       0.005950450601
126       0.005480173600
127       0.076891431714
128      -0.078669081082
129       0.023691278937
130      -0.039949655193
131       0.288400748485
132      -0.036324441478
133      -0.030585911320
134      -0.061984005351
135      -0.088099926531
136       0.011297448143
137      -0.159453210285
138      -0.303902694487
139       0.146647004510
140      -0.014587405547
141      -0.149886965156
142       0.010168106655
143      -0.011695469062
144      -0.103242092737
145       0.117217375245
146       0.181718968350
147       0.015097151109
 Sym=     1a
 Ene= -4.91135110283178E-01
 Spin= Alpha
 Occup= 2.000000
  1      -0.001294771303
  2       0.000731464061
  3       0.000000000857
  4      -0.000007266622
  5      -0.000000000503
  6       0.000955343073
  7      -0.000000001104
  8       0.002301381888
  9      -0.001178604224
 10      -0.000000000840
 11       0.000178342226
 12       0.000000002735
 13      -0.001792204834
 14       0.000000003455
 15      -0.115186986745
 16       0.063852699870
 17       0.000000079785
 18      -0.002308032462
 19      -0.000000054878
 20       0.085935902529
 21      -0.000000083681
 22       0.012538428755
 23      -0.005222946217
 24      -0.000000029215
 25       0.002602815181
 26       0.000000029240
 27      -0.010692562356
 28       0.000000060500
 29       0.112263149670
 30      -0.057313612519
 31      -0.000000044487
 32       0.008944151343
 33      -0.000000091693
 34      -0.087564237298
 35      -0.000000002030
 36      -0.023816428335
 37       0.000330695898
 38       0.022038408390
 39      -0.017498133469
 40       0.174841360379
 41       0.031235451616
 42      -0.030621504405
 43       0.079374934003
 44      -0.027766816761
 45      -0.062329121219
 46       0.025850023562
 47      -0.399693637568
 48      -0.081333876679
 49       0.083624054195
 50      -0.030078489832
 51       0.111860227005
 52       0.055983399575
 53       0.107175068103
 54       0.425234569418
 55      -0.044086458623
 56      -0.058752574987
 57      -0.126689189608
 58       0.140385616540
 59       0.134646594408
 60       0.069281569351
 61      -0.163534295398
 62       0.058832233853
 63      -0.164630405532
 64       0.013835114014
 65       0.005712891571
 66       0.027809828362
 67       0.017992985485
 68       0.006409729681
 69      -0.024184260202
 70       0.023289846236
 71      -0.023360701067
 72      -0.004483962580
 73      -0.039355085712
 74      -0.026360699913
 75      -0.014652870931
 76       0.040473420572
 77      -0.035320003260
 78       0.047497688856
 79      -0.122755260693
 80      -0.180371328757
 81      -0.108512162051
 82       0.015589210308
 83       0.032050496368
 84      -0.135971288362
 85       0.074217594601
 86      -0.114554352497
 87      -0.126230917825
 88      -0.074764748269
 89      -0.005995166125
 90      -0.017163223728
 91      -0.087918906563
 92       0.013835082238
 93       0.005712796873
 94      -0.027809824135
 95       0.017993055773
 96      -0.006409969365
 97      -0.024184272932
 98      -0.023289849493
 99      -0.023360599140
100      -0.004483770331
101       0.039355041107
102      -0.026360809972
103       0.014653423743
104       0.040473495653
105       0.035320053566
106       0.047497619262
107      -0.122755136158
108       0.180371288705
109      -0.108512435567
110      -0.015589797878
111       0.032050178546
112       0.135971313217
113       0.074217296232
114      -0.114554397420
115       0.126230939959
116      -0.074764930547
117       0.005995487789
118      -0.017163583427
119       0.087918953519
120      -0.023816354905
121       0.000330620919
122      -0.022038394596
123      -0.017498195765
124      -0.174841111631
125       0.031235454798
126       0.030621489408
127       0.079374754489
128      -0.027766673212
129       0.062329068261
130       0.025850120413
131       0.399693080642
132      -0.081333841226
133      -0.083623990565
134      -0.030078334596
135       0.111860416387
136      -0.055983411735
137       0.107175394917
138      -0.425234025003
139      -0.044086693461
140       0.058752648182
141      -0.126688855981
142       0.140385609289
143      -0.134646607528
144       0.069281769004
145       0.163534166591
146       0.058831884382
147       0.164630425343
 Sym=     1a
 Ene= -4.91135024586382E-01
 Spin= Alpha
 Occup= 2.000000
  1       0.001203193268
  2       0.000787137221
  3      -0.000000006324
  4       0.000006752801
  5      -0.000000000105
  6       0.001028056472
  7       0.000000008251
  8      -0.002138607030
  9      -0.001268310841
 10       0.000000012235
 11      -0.000165727600
 12       0.000000005219
 13      -0.001928613223
 14      -0.000000011009
 15       0.107039911965
 16       0.068712653156
 17      -0.000000549413
 18       0.002144801008
 19       0.000000005007
 20       0.092476677076
 21       0.000000732782
 22      -0.011651612529
 23      -0.005620531470
 24       0.000000272144
 25      -0.002418669769
 26      -0.000000011793
 27      -0.011506375771
 28      -0.000000266906
 29      -0.104322932577
 30      -0.061675888522
 31       0.000000340691
 32      -0.008311571100
 33      -0.000000072112
 34      -0.094229009674
 35      -0.000000417359
 36      -0.015620756407
 37       0.005752236873
 38       0.029502738404
 39      -0.019326376905
 40       0.006409000876
 41      -0.021956066742
 42       0.021104313828
 43       0.029250753442
 44      -0.006534061315
 45      -0.044037096902
 46       0.028329934976
 47      -0.014651211853
 48       0.034611042024
 49      -0.029275555114
 50      -0.049833419627
 51      -0.114872186433
 52      -0.176746362170
 53       0.116674279710
 54       0.015587458783
 55       0.028898751640
 56      -0.140651092353
 57      -0.083717773743
 58      -0.104555606671
 59      -0.116684844563
 60       0.080053449890
 61      -0.005994525314
 62      -0.012891380684
 63      -0.100242806060
 64       0.024896079639
 65       0.000750721810
 66       0.024139486908
 67       0.018866511006
 68      -0.174840369719
 69       0.029543872599
 70      -0.028993905514
 71      -0.081303127541
 72      -0.028170153658
 73      -0.065386138843
 74      -0.027855358068
 75       0.399691403620
 76      -0.078580974928
 77       0.081255648033
 78       0.033646262246
 79       0.103149257180
 80       0.042891182552
 81      -0.115431829497
 82      -0.425232258636
 83      -0.041853064435
 84      -0.068893943816
 85       0.132478141902
 86       0.132352719284
 87       0.125741041855
 88      -0.074958041900
 89       0.163533488106
 90       0.057729137376
 91      -0.171528588133
 92       0.024896489782
 93       0.000751265983
 94      -0.024139574515
 95       0.018866131316
 96       0.174842107780
 97       0.029543944476
 98       0.028994007084
 99      -0.081304198100
100      -0.028171250393
101       0.065386516997
102      -0.027854790242
103      -0.399695336577
104      -0.078581439967
105      -0.081256107232
106       0.033647124211
107       0.103148060196
108      -0.042891029941
109      -0.115429676958
110       0.425236336630
111      -0.041851084217
112       0.068893726649
113       0.132480172505
114       0.132352954295
115      -0.125741163556
116      -0.074956780626
117      -0.163534968706
118       0.057731494928
119       0.171528716669
120      -0.015621137153
121       0.005752773389
122      -0.029502774121
123      -0.019325989020
124      -0.006410701102
125      -0.021956001533
126      -0.021104262938
127       0.029251783005
128      -0.006535140723
129       0.044037377016
130       0.028329357757
131       0.014655087759
132       0.034610579215
133       0.029275186860
134      -0.049834326806
135      -0.114873325354
136       0.176746624530
137       0.116672221670
138      -0.015591550791
139       0.028900745217
140       0.140650826892
141      -0.083719868567
142      -0.104555423485
143       0.116684835452
144       0.080052094471
145       0.005996118710
146      -0.012888893234
147       0.100242855311
 Sym=     1a
 Ene= -1.14127185111959E-01
 Spin= Alpha
 Occup= 2.000000
  1      -0.000000003490
  2       0.000000001070
  3       0.000929711041
  4      -0.000000000132
  5       0.000000002306
  6       0.000000000915
  7      -0.001200251988
  8       0.000000011944
  9      -0.000000008793
 10      -0.004503989292
 11      -0.000000000651
 12      -0.000000015548
 13      -0.000000007675
 14       0.005814624668
 15      -0.000000150772
 16       0.000000072880
 17       0.034440444044
 18      -0.000000006620
 19       0.000000239394
 20       0.000000006074
 21      -0.044462443613
 22      -0.000000901210
 23       0.000000048566
 24       0.232849531869
 25      -0.000000027619
 26      -0.000000037172
 27       0.000000266461
 28      -0.300607462705
 29       0.000000651046
 30      -0.000000625301
 31      -0.326700337439
 32      -0.000000149330
 33       0.000000350639
 34      -0.000000941175
 35       0.421768084573
 36       0.004540589637
 37      -0.023444420132
 38      -0.004139112594
 39      -0.026138033151
 40      -0.034045898058
 41       0.012416545441
 42       0.005343624171
 43      -0.005262339283
 44       0.042059409634
 45       0.011514660656
 46       0.049125328734
 47       0.066850420466
 48      -0.025922729639
 49      -0.014865460726
 50       0.036310437278
 51      -0.010012773336
 52       0.065100212147
 53       0.015460732067
 54      -0.014927599725
 55      -0.038173801958
 56      -0.084043989898
 57       0.172784819167
 58      -0.227813904547
 59       0.161094740258
 60      -0.154325646086
 61      -0.051982180501
 62      -0.042094130893
 63      -0.207972223315
 64      -0.004540481815
 65      -0.023444428978
 66      -0.004139165465
 67       0.026138001504
 68       0.034045718281
 69       0.012416666828
 70       0.005343508461
 71       0.005262127821
 72       0.042059452693
 73       0.011514788644
 74      -0.049125282482
 75      -0.066850106033
 76      -0.025922942426
 77      -0.014865280835
 78      -0.036310825405
 79      -0.010012483324
 80       0.065100271142
 81      -0.015460921286
 82       0.014927648450
 83      -0.038173762793
 84      -0.084044036382
 85      -0.172785632138
 86      -0.227814088120
 87       0.161094440488
 88       0.154326052582
 89       0.051981729995
 90      -0.042092549888
 91      -0.207972813055
 92       0.004540516450
 93       0.023444355131
 94      -0.004139043187
 95      -0.026138039576
 96       0.034045769545
 97      -0.012416585601
 98       0.005343613671
 99      -0.005262217239
100      -0.042059291031
101       0.011514548235
102       0.049125348890
103      -0.066850192668
104       0.025922820061
105      -0.014865470945
106       0.036310387893
107       0.010012755605
108       0.065100159871
109       0.015461047661
110       0.014927634334
111       0.038174073839
112      -0.084044015964
113       0.172784085146
114       0.227814376970
115       0.161095176501
116      -0.154326411991
117       0.051981600496
118       0.042093939912
119      -0.207972178962
120      -0.004540545370
121       0.023444510629
122      -0.004139129555
123       0.026138085723
124      -0.034045665922
125      -0.012416628142
126       0.005343557671
127       0.005262235961
128      -0.042059580830
129       0.011514705732
130      -0.049125426410
131       0.066849963464
132       0.025922891417
133      -0.014865353051
134      -0.036310844776
135       0.010012825852
136       0.065100383606
137      -0.015460830003
138      -0.014927461715
139       0.038173910121
140      -0.084044194141
141      -0.172785591283
142       0.227814407450
143       0.161095192089
144       0.154325880491
145      -0.051981796282
146       0.042093568229
147      -0.207973316454
 Sym=     1a
 Ene= 1.25748247974535E-01
 Spin= Alpha
 Occup= 0.000000
  1      -0.000853941091
  2       0.000569832528
  3      -0.000000001881
  4       0.000006965538
  5       0.000000000084
  6       0.000723384916
  7       0.000000002411
  8       0.004232534928
  9      -0.002847351473
 10       0.000000016409
 11      -0.000061494180
 12      -0.000000000364
 13      -0.003567627334
 14      -0.000000007038
 15      -0.024123817890
 16       0.018530241894
 17      -0.000000095513
 18       0.003050130368
 19       0.000000015039
 20       0.018551414599
 21       0.000000044736
 22      -0.235206540078
 23       0.149817386486
 24      -0.000000212124
 25      -0.006451229632
 26       0.000000000245
 27       0.204773540386
 28       0.000000889963
 29       0.328853545447
 30      -0.228608287466
 31       0.000001191705
 32      -0.013433332354
 33       0.000000035685
 34      -0.271476914972
 35      -0.000000531662
 36       0.005112600932
 37       0.008030987506
 38      -0.003726623027
 39       0.015324781610
 40      -0.047214118923
 41      -0.013003816890
 42       0.003008323928
 43      -0.012494935485
 44      -0.012714705966
 45       0.005338196616
 46      -0.028317314515
 47       0.095059025511
 48       0.026805109829
 49      -0.003547067907
 50      -0.047317425972
 51       0.016577090392
 52      -0.023236298183
 53      -0.022524024119
 54      -0.023125437223
 55       0.054981950207
 56       0.032554324409
 57      -0.029509523670
 58       0.114410572689
 59      -0.172470394000
 60       0.112550956571
 61      -0.083728907601
 62      -0.022182767458
 63       0.208507317701
 64       0.003117915971
 65      -0.012327874883
 66      -0.023261323909
 67      -0.013989898040
 68       0.001779499551
 69       0.005105852643
 70      -0.017795980951
 71      -0.011588072205
 72       0.026286123763
 73       0.043096333443
 74       0.025582464864
 75      -0.003582772585
 76      -0.004468465907
 77       0.033092801887
 78      -0.081681242465
 79       0.072262897562
 80       0.031916064907
 81       0.026813307182
 82       0.000871579550
 83       0.052157389947
 84       0.026627777467
 85      -0.303756300369
 86       0.101806350633
 87      -0.188005372244
 88      -0.117072538304
 89       0.003155809248
 90       0.309277979061
 91      -0.132733243107
 92       0.003117865353
 93      -0.012327963140
 94       0.023261384773
 95      -0.013989809129
 96      -0.001779671721
 97       0.005105936430
 98       0.017795972890
 99      -0.011587968434
100       0.026286263397
101      -0.043096445252
102       0.025582291328
103       0.003583118176
104      -0.004468642942
105      -0.033092744028
106      -0.081681457438
107       0.072262827074
108      -0.031916101287
109       0.026812965719
110      -0.000871687634
111       0.052157341698
112      -0.026627247771
113      -0.303757491886
114       0.101805733564
115       0.188004161793
116      -0.117071492763
117      -0.003156005631
118       0.309277919485
119       0.132733627750
120       0.005112561653
121       0.008030882872
122       0.003726566803
123       0.015324610502
124       0.047214283284
125      -0.013003829821
126      -0.003008393337
127      -0.012494846279
128      -0.012714506864
129      -0.005338115942
130      -0.028317004593
131      -0.095059358600
132       0.026805134157
133       0.003547216670
134      -0.047317410014
135       0.016577062144
136       0.023235738313
137      -0.022524067977
138       0.023125544680
139       0.054981591226
140      -0.032554148294
141      -0.029509127306
142       0.114409040715
143       0.172469902345
144       0.112550609843
145       0.083729126329
146      -0.022183315911
147      -0.208506138282
 Sym=     1a
 Ene= 1.25748312208164E-01
 Spin= Alpha
 Occup= 0.000000
  1      -0.000920835984
  2      -0.000528436949
  3      -0.000000000400
  4       0.000007511203
  5       0.000000002260
  6      -0.000670834465
  7       0.000000000510
  8       0.004564097303
  9       0.002640508079
 10       0.000000001794
 11      -0.000066315942
 12      -0.000000010072
 13       0.003308453589
 14      -0.000000001344
 15      -0.026013613260
 16      -0.017184137278
 17       0.000000009879
 18       0.003289093315
 19       0.000000082766
 20      -0.017203740786
 21      -0.000000027378
 22      -0.253631753227
 23      -0.138933703645
 24      -0.000000189838
 25      -0.006956770184
 26       0.000000407858
 27      -0.189897759439
 28       0.000000301988
 29       0.354614552818
 30       0.212001207599
 31       0.000000034530
 32      -0.014486166013
 33       0.000000598650
 34       0.251754925827
 35      -0.000000033074
 36       0.003512733773
 37       0.012969232741
 38       0.023046203039
 39      -0.012872803788
 40      -0.001779570962
 41      -0.006102083371
 42       0.018073694176
 43      -0.012564267035
 44      -0.027320781729
 45      -0.042816015422
 46       0.023517514398
 47       0.003582903066
 48       0.006504788469
 49      -0.033454655076
 50      -0.085485856127
 51      -0.071217144466
 52      -0.033760942203
 53       0.025188873222
 54      -0.000871603139
 55      -0.048154976492
 56      -0.024245724203
 57      -0.306848860177
 58      -0.093458618888
 59       0.175519802376
 60      -0.108908059917
 61      -0.003156090034
 62      -0.311832809788
 63       0.148851417143
 64       0.005362532109
 65      -0.008984390589
 66       0.001981175611
 67       0.014312165526
 68      -0.047214201375
 69       0.013426288555
 70      -0.004360358595
 71      -0.013405282634
 72       0.014735089766
 73      -0.002099943910
 74      -0.026466455379
 75       0.095059169944
 76      -0.027218758066
 77       0.006055433806
 78      -0.053618250881
 79      -0.011169026988
 80       0.025711412956
 81      -0.020564017170
 82      -0.023125403817
 83      -0.051200799337
 84      -0.030636636263
 85      -0.052524072279
 86      -0.107049833399
 87       0.158768057094
 88       0.104033215734
 89      -0.083729362413
 90       0.045593988416
 91      -0.219119890224
 92       0.005362472024
 93      -0.008984472197
 94      -0.001981178148
 95       0.014312222404
 96       0.047214157041
 97       0.013426257844
 98       0.004360341916
 99      -0.013405180616
100       0.014735225750
101       0.002099960623
102      -0.026466545324
103      -0.095059099806
104      -0.027218697979
105      -0.006055418019
106      -0.053618252875
107      -0.011169100543
108      -0.025711591143
109      -0.020563930582
110       0.023125463834
111      -0.051200799986
112       0.030636808624
113      -0.052524496483
114      -0.107050241301
115      -0.158768337805
116       0.104033253161
117       0.083728839469
118       0.045593589729
119       0.219120344087
120       0.003512711281
121       0.012969285335
122      -0.023046187076
123      -0.012872753437
124       0.001779617990
125      -0.006102085895
126      -0.018073705663
127      -0.012564246002
128      -0.027320867468
129       0.042815966893
130       0.023517424470
131      -0.003583029357
132       0.006504803622
133       0.033454704594
134      -0.085485709952
135      -0.071216955574
136       0.033761013263
137       0.025189265065
138       0.000871703669
139      -0.048155296406
140       0.024245692122
141      -0.306848888578
142      -0.093459139054
143      -0.175519771670
144      -0.108908887380
145       0.003155700464
146      -0.311832215613
147      -0.148851540094
 Sym=     1a
 Ene= 1.92344748628056E-01
 Spin= Alpha
 Occup= 0.000000
  1      -0.000000000453
  2      -0.000000000185
  3      -0.000000000315
  4      -0.000000000040
  5      -0.002930119982
  6      -0.000000000184
  7       0.000000000404
  8       0.000000000497
  9       0.000000005551
 10       0.000000002171
 11      -0.000000006515
 12       0.017440516987
 13      -0.000000004740
 14      -0.000000003113
 15      -0.000000056333
 16      -0.000000058101
 17      -0.000000005562
 18       0.000000019672
 19      -0.177035378157
 20      -0.000000026041
 21       0.000000006634
 22       0.000000046423
 23       0.000000299292
 24      -0.000000077659
 25      -0.000000235045
 26      -0.247455628450
 27      -0.000000061733
 28       0.000000091581
 29       0.000000006264
 30       0.000000574878
 31       0.000000436852
 32      -0.000000749677
 33      -0.918966449591
 34      -0.000000460839
 35      -0.000000604995
 36      -0.024099368789
 37       0.003365163646
 38       0.020515243700
 39      -0.014410647472
 40       0.011657685888
 41       0.027876936315
 42      -0.026485107708
 43       0.032152982868
 44      -0.001466990852
 45      -0.033626366772
 46       0.023049953684
 47      -0.004544137253
 48      -0.039534373222
 49       0.043411531462
 50       0.040512228858
 51      -0.076575907053
 52      -0.004670123311
 53      -0.065481170251
 54      -0.044560013986
 55       0.008071162612
 56       0.006029312092
 57       0.042691744242
 58       0.083722905894
 59       0.118968406750
 60       0.138971153927
 61       0.260556177884
 62      -0.118852638769
 63      -0.153587605970
 64      -0.024099391085
 65      -0.003365166897