[Molden Format]
[GTO]
    1 0
 s  11 1.00
   19730.8006470    0.0002188800
    2957.8958745    0.0016960700
     673.2213360    0.0087954600
     190.6824949    0.0353593800
      62.2954419    0.1109578900
      22.6541612    0.2498297300
       8.9791477    0.0000000000
       3.6863002    0.0000000000
       0.8466008    0.0000000000
       0.3364713    0.0000000000
       0.1364765    0.0000000000
 s  11 1.00
   19730.8006470    0.0000000000
    2957.8958745    0.0000000000
     673.2213360    0.0000000000
     190.6824949    0.0000000000
      62.2954419    0.0000000000
      22.6541612    0.0000000000
       8.9791477    0.4062389600
       3.6863002    0.2433821700
       0.8466008    0.0000000000
       0.3364713    0.0000000000
       0.1364765    0.0000000000
 s  11 1.00
   19730.8006470    0.0000000000
    2957.8958745    0.0000000000
     673.2213360    0.0000000000
     190.6824949    0.0000000000
      62.2954419    0.0000000000
      22.6541612    0.0000000000
       8.9791477    0.0000000000
       3.6863002    0.0000000000
       0.8466008    1.0000000000
       0.3364713    0.0000000000
       0.1364765    0.0000000000
 s  11 1.00
   19730.8006470    0.0000000000
    2957.8958745    0.0000000000
     673.2213360    0.0000000000
     190.6824949    0.0000000000
      62.2954419    0.0000000000
      22.6541612    0.0000000000
       8.9791477    0.0000000000
       3.6863002    0.0000000000
       0.8466008    0.0000000000
       0.3364713    1.0000000000
       0.1364765    0.0000000000
 s  11 1.00
   19730.8006470    0.0000000000
    2957.8958745    0.0000000000
     673.2213360    0.0000000000
     190.6824949    0.0000000000
      62.2954419    0.0000000000
      22.6541612    0.0000000000
       8.9791477    0.0000000000
       3.6863002    0.0000000000
       0.8466008    0.0000000000
       0.3364713    0.0000000000
       0.1364765    1.0000000000
 p   6 1.00
      49.2003805    0.0055552400
      11.3467905    0.0380523800
       3.4273972    0.1495367100
       1.1785525    0.3494930500
       0.4164220    0.0000000000
       0.1426083    0.0000000000
 p   6 1.00
      49.2003805    0.0000000000
      11.3467905    0.0000000000
       3.4273972    0.0000000000
       1.1785525    0.0000000000
       0.4164220    1.0000000000
       0.1426083    0.0000000000
 p   6 1.00
      49.2003805    0.0000000000
      11.3467905    0.0000000000
       3.4273972    0.0000000000
       1.1785525    0.0000000000
       0.4164220    0.0000000000
       0.1426083    1.0000000000
 d   2 1.00
       1.6540000    1.0000000000
       0.4690000    0.0000000000
 d   2 1.00
       1.6540000    0.0000000000
       0.4690000    1.0000000000
 f   1 1.00
       1.0930000    1.0000000000

    2 0
 s  11 1.00
   19730.8006470    0.0002188800
    2957.8958745    0.0016960700
     673.2213360    0.0087954600
     190.6824949    0.0353593800
      62.2954419    0.1109578900
      22.6541612    0.2498297300
       8.9791477    0.0000000000
       3.6863002    0.0000000000
       0.8466008    0.0000000000
       0.3364713    0.0000000000
       0.1364765    0.0000000000
 s  11 1.00
   19730.8006470    0.0000000000
    2957.8958745    0.0000000000
     673.2213360    0.0000000000
     190.6824949    0.0000000000
      62.2954419    0.0000000000
      22.6541612    0.0000000000
       8.9791477    0.4062389600
       3.6863002    0.2433821700
       0.8466008    0.0000000000
       0.3364713    0.0000000000
       0.1364765    0.0000000000
 s  11 1.00
   19730.8006470    0.0000000000
    2957.8958745    0.0000000000
     673.2213360    0.0000000000
     190.6824949    0.0000000000
      62.2954419    0.0000000000
      22.6541612    0.0000000000
       8.9791477    0.0000000000
       3.6863002    0.0000000000
       0.8466008    1.0000000000
       0.3364713    0.0000000000
       0.1364765    0.0000000000
 s  11 1.00
   19730.8006470    0.0000000000
    2957.8958745    0.0000000000
     673.2213360    0.0000000000
     190.6824949    0.0000000000
      62.2954419    0.0000000000
      22.6541612    0.0000000000
       8.9791477    0.0000000000
       3.6863002    0.0000000000
       0.8466008    0.0000000000
       0.3364713    1.0000000000
       0.1364765    0.0000000000
 s  11 1.00
   19730.8006470    0.0000000000
    2957.8958745    0.0000000000
     673.2213360    0.0000000000
     190.6824949    0.0000000000
      62.2954419    0.0000000000
      22.6541612    0.0000000000
       8.9791477    0.0000000000
       3.6863002    0.0000000000
       0.8466008    0.0000000000
       0.3364713    0.0000000000
       0.1364765    1.0000000000
 p   6 1.00
      49.2003805    0.0055552400
      11.3467905    0.0380523800
       3.4273972    0.1495367100
       1.1785525    0.3494930500
       0.4164220    0.0000000000
       0.1426083    0.0000000000
 p   6 1.00
      49.2003805    0.0000000000
      11.3467905    0.0000000000
       3.4273972    0.0000000000
       1.1785525    0.0000000000
       0.4164220    1.0000000000
       0.1426083    0.0000000000
 p   6 1.00
      49.2003805    0.0000000000
      11.3467905    0.0000000000
       3.4273972    0.0000000000
       1.1785525    0.0000000000
       0.4164220    0.0000000000
       0.1426083    1.0000000000
 d   2 1.00
       1.6540000    1.0000000000
       0.4690000    0.0000000000
 d   2 1.00
       1.6540000    0.0000000000
       0.4690000    1.0000000000
 f   1 1.00
       1.0930000    1.0000000000

    3 0
 s  11 1.00
   19730.8006470    0.0002188800
    2957.8958745    0.0016960700
     673.2213360    0.0087954600
     190.6824949    0.0353593800
      62.2954419    0.1109578900
      22.6541612    0.2498297300
       8.9791477    0.0000000000
       3.6863002    0.0000000000
       0.8466008    0.0000000000
       0.3364713    0.0000000000
       0.1364765    0.0000000000
 s  11 1.00
   19730.8006470    0.0000000000
    2957.8958745    0.0000000000
     673.2213360    0.0000000000
     190.6824949    0.0000000000
      62.2954419    0.0000000000
      22.6541612    0.0000000000
       8.9791477    0.4062389600
       3.6863002    0.2433821700
       0.8466008    0.0000000000
       0.3364713    0.0000000000
       0.1364765    0.0000000000
 s  11 1.00
   19730.8006470    0.0000000000
    2957.8958745    0.0000000000
     673.2213360    0.0000000000
     190.6824949    0.0000000000
      62.2954419    0.0000000000
      22.6541612    0.0000000000
       8.9791477    0.0000000000
       3.6863002    0.0000000000
       0.8466008    1.0000000000
       0.3364713    0.0000000000
       0.1364765    0.0000000000
 s  11 1.00
   19730.8006470    0.0000000000
    2957.8958745    0.0000000000
     673.2213360    0.0000000000
     190.6824949    0.0000000000
      62.2954419    0.0000000000
      22.6541612    0.0000000000
       8.9791477    0.0000000000
       3.6863002    0.0000000000
       0.8466008    0.0000000000
       0.3364713    1.0000000000
       0.1364765    0.0000000000
 s  11 1.00
   19730.8006470    0.0000000000
    2957.8958745    0.0000000000
     673.2213360    0.0000000000
     190.6824949    0.0000000000
      62.2954419    0.0000000000
      22.6541612    0.0000000000
       8.9791477    0.0000000000
       3.6863002    0.0000000000
       0.8466008    0.0000000000
       0.3364713    0.0000000000
       0.1364765    1.0000000000
 p   6 1.00
      49.2003805    0.0055552400
      11.3467905    0.0380523800
       3.4273972    0.1495367100
       1.1785525    0.3494930500
       0.4164220    0.0000000000
       0.1426083    0.0000000000
 p   6 1.00
      49.2003805    0.0000000000
      11.3467905    0.0000000000
       3.4273972    0.0000000000
       1.1785525    0.0000000000
       0.4164220    1.0000000000
       0.1426083    0.0000000000
 p   6 1.00
      49.2003805    0.0000000000
      11.3467905    0.0000000000
       3.4273972    0.0000000000
       1.1785525    0.0000000000
       0.4164220    0.0000000000
       0.1426083    1.0000000000
 d   2 1.00
       1.6540000    1.0000000000
       0.4690000    0.0000000000
 d   2 1.00
       1.6540000    0.0000000000
       0.4690000    1.0000000000
 f   1 1.00
       1.0930000    1.0000000000

    4 0
 s  11 1.00
   19730.8006470    0.0002188800
    2957.8958745    0.0016960700
     673.2213360    0.0087954600
     190.6824949    0.0353593800
      62.2954419    0.1109578900
      22.6541612    0.2498297300
       8.9791477    0.0000000000
       3.6863002    0.0000000000
       0.8466008    0.0000000000
       0.3364713    0.0000000000
       0.1364765    0.0000000000
 s  11 1.00
   19730.8006470    0.0000000000
    2957.8958745    0.0000000000
     673.2213360    0.0000000000
     190.6824949    0.0000000000
      62.2954419    0.0000000000
      22.6541612    0.0000000000
       8.9791477    0.4062389600
       3.6863002    0.2433821700
       0.8466008    0.0000000000
       0.3364713    0.0000000000
       0.1364765    0.0000000000
 s  11 1.00
   19730.8006470    0.0000000000
    2957.8958745    0.0000000000
     673.2213360    0.0000000000
     190.6824949    0.0000000000
      62.2954419    0.0000000000
      22.6541612    0.0000000000
       8.9791477    0.0000000000
       3.6863002    0.0000000000
       0.8466008    1.0000000000
       0.3364713    0.0000000000
       0.1364765    0.0000000000
 s  11 1.00
   19730.8006470    0.0000000000
    2957.8958745    0.0000000000
     673.2213360    0.0000000000
     190.6824949    0.0000000000
      62.2954419    0.0000000000
      22.6541612    0.0000000000
       8.9791477    0.0000000000
       3.6863002    0.0000000000
       0.8466008    0.0000000000
       0.3364713    1.0000000000
       0.1364765    0.0000000000
 s  11 1.00
   19730.8006470    0.0000000000
    2957.8958745    0.0000000000
     673.2213360    0.0000000000
     190.6824949    0.0000000000
      62.2954419    0.0000000000
      22.6541612    0.0000000000
       8.9791477    0.0000000000
       3.6863002    0.0000000000
       0.8466008    0.0000000000
       0.3364713    0.0000000000
       0.1364765    1.0000000000
 p   6 1.00
      49.2003805    0.0055552400
      11.3467905    0.0380523800
       3.4273972    0.1495367100
       1.1785525    0.3494930500
       0.4164220    0.0000000000
       0.1426083    0.0000000000
 p   6 1.00
      49.2003805    0.0000000000
      11.3467905    0.0000000000
       3.4273972    0.0000000000
       1.1785525    0.0000000000
       0.4164220    1.0000000000
       0.1426083    0.0000000000
 p   6 1.00
      49.2003805    0.0000000000
      11.3467905    0.0000000000
       3.4273972    0.0000000000
       1.1785525    0.0000000000
       0.4164220    0.0000000000
       0.1426083    1.0000000000
 d   2 1.00
       1.6540000    1.0000000000
       0.4690000    0.0000000000
 d   2 1.00
       1.6540000    0.0000000000
       0.4690000    1.0000000000
 f   1 1.00
       1.0930000    1.0000000000

[SCFCONV]
scf-first  1  THROUGH  11
     -216.7690854340
     -217.5358380020
     -217.5953658783
     -217.5990758491
     -217.5993109963
     -217.5993326164
     -217.5993396424
     -217.5993402577
     -217.5993402730
     -217.5993402742
     -217.5993402743
[TITLE]
*** Dalton interface to Molden, wave function type : HF            21Jan18   18:
[Atoms] AU
N          1     7        -1.2141710420         0.0000000000         1.192911653
N          2     7         1.3902700099        -0.8023365584         0.582123105
N          3     7        -0.5808226486        -0.8023365584        -1.377397541
N          4     7         0.4047236807         1.6046731167        -0.397637217
[5D7F]
[9G]
[MO]
Sym= A
Ene=  -15.7509
Spin= Alpha
Occup=  2.0000
    1        0.226206
    2        0.317363
    3        0.009876
    4       -0.002897
    5        0.000605
    6        0.001409
    8       -0.001408
    9       -0.000574
   10       -0.000006
   11        0.000492
   12        0.000199
   14       -0.000194
   15        0.000074
   16       -0.000239
   17        0.000002
   18        0.000117
   19        0.000001
   20       -0.000036
   21        0.000222
   22        0.000009
   23       -0.000127
   24        0.000005
   25       -0.000009
   26       -0.000019
   27        0.000024
   28        0.000025
   29        0.000032
   30       -0.000011
   31        0.000032
   32        0.215666
   33        0.302578
   34        0.009308
   35       -0.002431
   36        0.000554
   37       -0.001530
   38        0.000887
   39       -0.000650
   40        0.000392
   41       -0.000263
   42        0.000154
   43       -0.000223
   44        0.000132
   45       -0.000094
   46       -0.000084
   47        0.000131
   48       -0.000074
   49        0.000102
   50       -0.000175
   51        0.000065
   52       -0.000074
   53        0.000056
   54       -0.000052
   55        0.000124
   56       -0.000024
   57        0.000017
   58        0.000033
   59       -0.000016
   60       -0.000013
   61        0.000011
   62       -0.000021
   63        0.233057
   64        0.326972
   65        0.010256
   66       -0.003219
   67        0.000642
   68        0.000698
   69        0.000974
   70        0.001681
   71       -0.000347
   72       -0.000421
   73       -0.000759
   74        0.000096
   75        0.000130
   76        0.000229
   77        0.000141
   78        0.000132
   79        0.000190
   80       -0.000028
   81        0.000078
   82       -0.000153
   83       -0.000167
   84       -0.000201
   85        0.000018
   86       -0.000086
   87       -0.000002
   88       -0.000011
   89       -0.000040
   90       -0.000027
   91       -0.000018
   92        0.000030
   93        0.000027
   94        0.223148
   95        0.313073
   96        0.009718
   97       -0.002770
   98        0.000593
   99       -0.000466
  100       -0.001850
  101        0.000459
  102        0.000113
  103        0.000648
  104       -0.000200
  105       -0.000062
  106       -0.000262
  107        0.000068
  108       -0.000114
  109       -0.000027
  110       -0.000102
  111       -0.000197
  112        0.000110
  113        0.000099
  114        0.000020
  115        0.000116
  116        0.000172
  117       -0.000061
  118        0.000042
  119        0.000028
  120       -0.000012
  122        0.000013
  123       -0.000021
  124       -0.000018
Sym= A
Ene=  -15.7500
Spin= Alpha
Occup=  2.0000
    1        0.120458
    2        0.168987
    3        0.006228
    4       -0.005124
    5        0.000393
    6        0.000841
    7        0.000056
    8       -0.000749
    9       -0.000922
   10        0.001397
   11        0.003085
   12       -0.000058
   13       -0.000036
   14        0.000003
   15       -0.000087
   16       -0.000098
   17       -0.000097
   18        0.000074
   19        0.000049
   20       -0.001157
   21        0.000606
   22       -0.000837
   23       -0.000119
   24        0.000382
   25        0.000178
   26       -0.000164
   27        0.000158
   28        0.000010
   29       -0.000136
   30       -0.000001
   31        0.000060
   32        0.071320
   33        0.100053
   34        0.003664
   35       -0.002930
   36        0.000248
   37       -0.000527
   38        0.000374
   39       -0.000174
   40        0.001620
   41        0.000793
   42        0.001931
   43        0.000002
   44       -0.000048
   45       -0.000027
   46       -0.000093
   47       -0.000079
   48       -0.000047
   49       -0.000043
   50       -0.000104
   51       -0.000472
   52       -0.001152
   53       -0.000153
   54       -0.000717
   55       -0.000215
   56       -0.000049
   57        0.000182
   58       -0.000043
   59        0.000225
   60       -0.000007
   61        0.000141
   63       -0.376194
   64       -0.527745
   65       -0.019638
   66        0.016385
   67       -0.001325
   68       -0.001209
   69       -0.001659
   70       -0.002895
   71        0.002949
   72        0.004660
   73        0.007189
   74        0.000043
   75        0.000048
   76        0.000103
   77       -0.000167
   78       -0.000156
   79       -0.000190
   80        0.000007
   81       -0.000071
   82        0.001212
   83        0.001196
   84        0.001920
   85       -0.000433
   86        0.000870
   87       -0.000001
   88        0.000067
   89        0.000186
   90       -0.000021
   91        0.000135
   92       -0.000120
   93       -0.000062
   94        0.201860
   95        0.283181
   96        0.010458
   97       -0.008520
   98        0.000725
   99       -0.000435
  100       -0.001772
  101        0.000514
  102        0.001465
  103        0.004767
  104        0.000673
  105        0.000002
  106        0.000036
  107       -0.000050
  108       -0.000045
  109       -0.000064
  110       -0.000183
  111       -0.000086
  112        0.000019
  113        0.000768
  114       -0.000287
  115       -0.000464
  116        0.001310
  117       -0.000937
  118       -0.000079
  119       -0.000028
  120       -0.000138
  121       -0.000107
  122        0.000114
  123       -0.000192
  124       -0.000119
Sym= A
Ene=  -15.7499
Spin= Alpha
Occup=  2.0000
    1        0.367715
    2        0.515851
    3        0.019138
    4       -0.015808
    5        0.001295
    6        0.002444
    7       -0.000023
    8       -0.002447
    9       -0.006396
   10       -0.000580
   11        0.005938
   12       -0.000072
   13        0.000015
   14        0.000085
   15        0.000101
   16       -0.000250
   17        0.000036
   18        0.000126
   19       -0.000025
   20       -0.000429
   21        0.002348
   22        0.000288
   23       -0.001155
   24       -0.000219
   25       -0.000096
   26       -0.000133
   27        0.000010
   28        0.000170
   29        0.000130
   30       -0.000060
   31        0.000036
   32       -0.125265
   33       -0.175728
   34       -0.006482
   35        0.005201
   36       -0.000468
   37        0.000912
   38       -0.000589
   39        0.000458
   40       -0.003420
   41        0.000451
   42        0.000412
   43        0.000012
   44        0.000033
   45       -0.000038
   46        0.000004
   47       -0.000128
   48        0.000091
   49        0.000077
   50        0.000066
   51       -0.000502
   52       -0.000245
   53        0.000267
   54        0.001312
   55       -0.000605
   56       -0.000075
   57        0.000122
   58       -0.000050
   59        0.000004
   60       -0.000089
   61       -0.000195
   62        0.000191
   63       -0.026312
   64       -0.036914
   65       -0.001356
   66        0.001151
   67       -0.000059
   68       -0.000153
   69       -0.000141
   70       -0.000154
   71       -0.001538
   72       -0.000341
   73        0.001627
   74        0.000051
   75        0.000023
   76       -0.000010
   77        0.000105
   78       -0.000112
   79        0.000001
   80        0.000018
   81       -0.000066
   82        0.001067
   83       -0.000783
   84        0.000266
   85        0.000145
   86       -0.000439
   87        0.000225
   88       -0.000106
   89        0.000161
   90       -0.000027
   91       -0.000122
   92        0.000063
   93        0.000005
   94       -0.224208
   95       -0.314531
   96       -0.011642
   97        0.009551
   98       -0.000788
   99        0.000445
  100        0.002008
  101       -0.000458
  102       -0.002639
  103       -0.004385
  104        0.002137
  105        0.000021
  106       -0.000073
  107       -0.000005
  108        0.000106
  109       -0.000061
  110        0.000027
  111        0.000189
  112        0.000009
  113       -0.000410
  114       -0.000837
  115       -0.000956
  116       -0.000669
  117        0.001279
  118       -0.000135
  119       -0.000044
  120       -0.000024
  121       -0.000024
  122        0.000194
  123        0.000191
  124       -0.000050
Sym= A
Ene=  -15.7499
Spin= Alpha
Occup=  2.0000
    1       -0.030894
    2       -0.043338
    3       -0.001639
    4        0.001357
    5       -0.000137
    6       -0.000172
    7       -0.000058
    8        0.000249
    9        0.001553
   10       -0.001509
   11        0.000506
   12       -0.000021
   13        0.000034
   14       -0.000024
   15       -0.000083
   16        0.000041
   17        0.000053
   18        0.000070
   19       -0.000104
   20       -0.000582
   21       -0.000020
   22        0.000432
   23        0.000799
   24       -0.000891
   25        0.000070
   26       -0.000146
   27       -0.000011
   28       -0.000086
   29        0.000162
   30        0.000140
   31       -0.000171
   32        0.366825
   33        0.514604
   34        0.019006
   35       -0.015508
   36        0.001269
   37       -0.002809
   38        0.001596
   39       -0.001173
   40        0.006495
   41       -0.004615
   42        0.003180
   43        0.000098
   44       -0.000035
   45        0.000032
   46       -0.000091
   47        0.000137
   48       -0.000056
   49        0.000163
   50       -0.000185
   51        0.000888
   52       -0.001330
   53        0.000958
   54       -0.000548
   55        0.001803
   56       -0.000163
   57        0.000011
   58        0.000099
   59       -0.000012
   60       -0.000162
   61       -0.000055
   62       -0.000123
   63       -0.072915
   64       -0.102288
   65       -0.003834
   66        0.003263
   67       -0.000248
   68       -0.000194
   69       -0.000393
   70       -0.000540
   71        0.001654
   72       -0.000876
   73        0.002043
   74       -0.000015
   75        0.000052
   76        0.000015
   77        0.000015
   78        0.000060
   79       -0.000101
   80        0.000108
   81       -0.000061
   82        0.000629
   83        0.001006
   84       -0.000151
   85        0.000829
   86       -0.000258
   87        0.000048
   88        0.000184
   89        0.000028
   90        0.000230
   91       -0.000023
   92        0.000120
   93        0.000045
   94       -0.247056
   95       -0.346583
   96       -0.012883
   97        0.010718
   98       -0.000847
   99        0.000610
  100        0.002184
  101       -0.000522
  102        0.000100
  103       -0.005818
  104        0.001975
  105       -0.000060
  106       -0.000077
  107        0.000008
  108        0.000072
  109        0.000050
  110        0.000019
  111        0.000119
  112       -0.000182
  113       -0.000861
  114        0.000100
  115       -0.001168
  116       -0.001482
  117       -0.000191
  118       -0.000166
  119       -0.000045
  120        0.000078
  121       -0.000148
  122       -0.000070
  123       -0.000090
  124        0.000151
Sym= A
Ene=   -1.6531
Spin= Alpha
Occup=  2.0000
    1        0.045753
    2        0.105596
    3       -0.149058
    4       -0.178962
    5       -0.018323
    6       -0.059622
    7        0.000010
    8        0.060087
    9       -0.051057
   10        0.000004
   11        0.051182
   12       -0.003266
   13        0.000001
   14        0.003266
   15       -0.002055
   16        0.006853
   17       -0.000051
   18       -0.003381
   19       -0.000048
   20       -0.004522
   21        0.015647
   22       -0.000077
   23       -0.007820
   24       -0.000074
   25       -0.000541
   26       -0.002056
   27        0.001024
   28        0.002145
   29        0.001209
   30       -0.000870
   31        0.001184
   32        0.045445
   33        0.104885
   34       -0.148173
   35       -0.177577
   36       -0.018423
   37        0.068231
   38       -0.039556
   39        0.029196
   40        0.058172
   41       -0.033737
   42        0.024794
   43        0.003804
   44       -0.002169
   45        0.001607
   46        0.002541
   47       -0.003881
   48        0.002225
   49       -0.002961
   50        0.005188
   51        0.005788
   52       -0.008718
   53        0.005010
   54       -0.006752
   55        0.011801
   56       -0.001849
   57        0.000324
   58        0.001595
   59        0.000081
   60       -0.001518
   61        0.000599
   62       -0.002223
   63        0.046061
   64        0.106306
   65       -0.149928
   66       -0.180389
   67       -0.018207
   68       -0.028624
   69       -0.040245
   70       -0.069403
   71       -0.024601
   72       -0.034434
   73       -0.059404
   74       -0.001548
   75       -0.002183
   76       -0.003702
   77       -0.003942
   78       -0.003728
   79       -0.005316
   80        0.000725
   81       -0.002187
   82       -0.009026
   83       -0.008667
   84       -0.012195
   85        0.001667
   86       -0.005070
   87       -0.000271
   88       -0.001095
   89       -0.002660
   90       -0.000626
   91       -0.001488
   92        0.001414
   93        0.000972
   94        0.045749
   95        0.105586
   96       -0.149039
   97       -0.178965
   98       -0.018315
   99        0.020217
  100        0.079792
  101       -0.019673
  102        0.017207
  103        0.068161
  104       -0.016871
  105        0.001137
  106        0.004352
  107       -0.001039
  108        0.003342
  109        0.000760
  110        0.003000
  111        0.005682
  112       -0.003088
  113        0.007593
  114        0.001738
  115        0.006886
  116        0.013003
  117       -0.007022
  118        0.002120
  119        0.000845
  120       -0.001325
  121        0.000490
  122        0.000125
  123       -0.001996
  124       -0.001607
Sym= A
Ene=   -1.0444
Spin= Alpha
Occup=  2.0000
    1        0.056238
    2        0.131904
    3       -0.194248
    4       -0.311922
    5       -0.096448
    6        0.069635
    7        0.018941
    8        0.061280
    9        0.035264
   10        0.015835
   11        0.075390
   12        0.008082
   13        0.002753
   14        0.011317
   15       -0.008046
   16       -0.000740
   17       -0.002533
   18        0.004723
   19        0.000176
   20       -0.017155
   21        0.009146
   22       -0.004829
   23        0.002929
   24       -0.000197
   25        0.002438
   26       -0.002591
   27        0.001572
   28       -0.000658
   29        0.000096
   30        0.001014
   31        0.000450
   32       -0.060191
   33       -0.141169
   34        0.207959
   35        0.333827
   36        0.103422
   37        0.055769
   38        0.060291
   39       -0.029372
   40        0.018155
   41        0.067842
   42       -0.037311
   43        0.005452
   44        0.010572
   45       -0.005612
   46        0.000990
   47        0.000905
   48       -0.003723
   49       -0.007835
   50       -0.001542
   51       -0.002918
   52        0.008107
   53       -0.010330
   54       -0.009003
   55       -0.011006
   56        0.001378
   57       -0.001218
   58       -0.000745
   59        0.001380
   60        0.001710
   61        0.002374
   62       -0.000492
   63        0.033174
   64        0.077809
   65       -0.114501
   66       -0.184243
   67       -0.056742
   68        0.113410
   69       -0.005057
   70       -0.039848
   71        0.089007
   72       -0.013665
   73       -0.049713
   74        0.016053
   75       -0.001592
   76       -0.007316
   77       -0.006161
   78        0.009097
   79       -0.002539
   80        0.002940
   81        0.003918
   82       -0.014409
   83        0.012943
   84       -0.009315
   85        0.005384
   86        0.004342
   87       -0.002684
   88        0.002173
   89       -0.002393
   90        0.001668
   91        0.001736
   92        0.000136
   93        0.001091
   94       -0.029698
   95       -0.069651
   96        0.102472
   97        0.165220
   98        0.050868
   99        0.118480
  100       -0.023172
  101        0.011566
  102        0.095915
  103       -0.036534
  104        0.013983
  105        0.017081
  106       -0.004986
  107        0.002102
  108       -0.000553
  109        0.003821
  110       -0.002318
  111       -0.004152
  112       -0.010749
  113       -0.004212
  114        0.006635
  115       -0.006840
  116       -0.011624
  117       -0.016387
  118       -0.000992
  119       -0.000851
  120        0.000481
  121       -0.001420
  122       -0.002148
  123       -0.003239
  124        0.002467
Sym= A
Ene=   -1.0410
Spin= Alpha
Occup=  2.0000
    1       -0.015945
    2       -0.037400
    3        0.055046
    4        0.088823
    5        0.027733
    6       -0.001302
    7        0.128345
    8        0.001818
    9        0.005561
   10        0.108612
   11       -0.005486
   12        0.000438
   13        0.019067
   14       -0.000473
   15       -0.001066
   16       -0.000918
   17       -0.009049
   18       -0.001757
   19        0.009098
   20       -0.001289
   21       -0.005083
   22       -0.015911
   23       -0.002296
   24        0.016029
   25        0.000841
   26        0.000441
   27        0.001733
   28        0.000105
   29       -0.004217
   30       -0.000800
   31        0.002295
   32        0.042861
   33        0.100532
   34       -0.148117
   35       -0.238203
   36       -0.074742
   37        0.032870
   38        0.098119
   39        0.039843
   40        0.048659
   41        0.070902
   42        0.042588
   43        0.007054
   44        0.013326
   45        0.006890
   46       -0.003665
   47       -0.004721
   48       -0.002842
   49       -0.007247
   50       -0.005517
   51       -0.003849
   52       -0.012920
   53       -0.002923
   54       -0.016257
   55       -0.003176
   56       -0.000403
   57        0.001825
   58       -0.000341
   59        0.002457
   60        0.000502
   61        0.003362
   62       -0.000284
   63        0.042646
   64        0.100030
   65       -0.147088
   66       -0.238025
   67       -0.073964
   68       -0.039775
   69        0.099017
   70       -0.033436
   71       -0.042493
   72        0.071494
   73       -0.049595
   74       -0.006715
   75        0.013507
   76       -0.007026
   77       -0.004527
   78       -0.004686
   79        0.005544
   80       -0.006890
   81        0.002848