

     ************************************************************************
     *************** Dalton - An Electronic Structure Program ***************
     ************************************************************************

    This is output from DALTON release Dalton2017.alpha (2017)
         ( Web site: http://daltonprogram.org )

   ----------------------------------------------------------------------------

    NOTE:
     
    Dalton is an experimental code for the evaluation of molecular
    properties using (MC)SCF, DFT, CI, and CC wave functions.
    The authors accept no responsibility for the performance of
    the code or for the correctness of the results.
     
    The code (in whole or part) is provided under a licence and
    is not to be reproduced for further distribution without
    the written permission of the authors or their representatives.
     
    See the home page "http://daltonprogram.org" for further information.
     
    If results obtained with this code are published,
    the appropriate citations would be both of:
     
       K. Aidas, C. Angeli, K. L. Bak, V. Bakken, R. Bast,
       L. Boman, O. Christiansen, R. Cimiraglia, S. Coriani,
       P. Dahle, E. K. Dalskov, U. Ekstroem,
       T. Enevoldsen, J. J. Eriksen, P. Ettenhuber, B. Fernandez,
       L. Ferrighi, H. Fliegl, L. Frediani, K. Hald, A. Halkier,
       C. Haettig, H. Heiberg, T. Helgaker, A. C. Hennum,
       H. Hettema, E. Hjertenaes, S. Hoest, I.-M. Hoeyvik,
       M. F. Iozzi, B. Jansik, H. J. Aa. Jensen, D. Jonsson,
       P. Joergensen, J. Kauczor, S. Kirpekar,
       T. Kjaergaard, W. Klopper, S. Knecht, R. Kobayashi, H. Koch,
       J. Kongsted, A. Krapp, K. Kristensen, A. Ligabue,
       O. B. Lutnaes, J. I. Melo, K. V. Mikkelsen, R. H. Myhre,
       C. Neiss, C. B. Nielsen, P. Norman, J. Olsen,
       J. M. H. Olsen, A. Osted, M. J. Packer, F. Pawlowski,
       T. B. Pedersen, P. F. Provasi, S. Reine, Z. Rinkevicius,
       T. A. Ruden, K. Ruud, V. Rybkin, P. Salek, C. C. M. Samson,
       A. Sanchez de Meras, T. Saue, S. P. A. Sauer,
       B. Schimmelpfennig, K. Sneskov, A. H. Steindal,
       K. O. Sylvester-Hvid, P. R. Taylor, A. M. Teale,
       E. I. Tellgren, D. P. Tew, A. J. Thorvaldsen, L. Thoegersen,
       O. Vahtras, M. A. Watson, D. J. D. Wilson, M. Ziolkowski
       and H. Agren,
       "The Dalton quantum chemistry program system",
       WIREs Comput. Mol. Sci. 2014, 4:269–284 (doi: 10.1002/wcms.1172)
     
    and
     
       Dalton, a Molecular Electronic Structure Program,
       Release Dalton2017.alpha (2017), see http://daltonprogram.org
   ----------------------------------------------------------------------------

    Authors in alphabetical order (major contribution(s) in parenthesis):

  Kestutis Aidas,           Vilnius University,           Lithuania   (QM/MM)
  Celestino Angeli,         University of Ferrara,        Italy       (NEVPT2)
  Keld L. Bak,              UNI-C,                        Denmark     (AOSOPPA, non-adiabatic coupling, magnetic properties)
  Vebjoern Bakken,          University of Oslo,           Norway      (DALTON; geometry optimizer, symmetry detection)
  Radovan Bast,             UiT The Arctic U. of Norway,  Norway      (DALTON installation and execution frameworks)
  Pablo Baudin,             University of Valencia,       Spain       (Cholesky excitation energies)
  Linus Boman,              NTNU,                         Norway      (Cholesky decomposition and subsystems)
  Ove Christiansen,         Aarhus University,            Denmark     (CC module)
  Renzo Cimiraglia,         University of Ferrara,        Italy       (NEVPT2)
  Sonia Coriani,            University of Trieste,        Italy       (CC module, MCD in RESPONS)
  Janusz Cukras,            University of Trieste,        Italy       (MChD in RESPONS)
  Paal Dahle,               University of Oslo,           Norway      (Parallelization)
  Erik K. Dalskov,          UNI-C,                        Denmark     (SOPPA)
  Thomas Enevoldsen,        Univ. of Southern Denmark,    Denmark     (SOPPA)
  Janus J. Eriksen,         Aarhus University,            Denmark     (Polarizable embedding model, TDA)
  Rasmus Faber,             University of Copenhagen,     Denmark     (Vib.avg. NMR with SOPPA, parallel AO-SOPPA)
  Berta Fernandez,          U. of Santiago de Compostela, Spain       (doublet spin, ESR in RESPONS)
  Lara Ferrighi,            Aarhus University,            Denmark     (PCM Cubic response)
  Heike Fliegl,             University of Oslo,           Norway      (CCSD(R12))
  Luca Frediani,            UiT The Arctic U. of Norway,  Norway      (PCM)
  Bin Gao,                  UiT The Arctic U. of Norway,  Norway      (Gen1Int library)
  Christof Haettig,         Ruhr-University Bochum,       Germany     (CC module)
  Kasper Hald,              Aarhus University,            Denmark     (CC module)
  Asger Halkier,            Aarhus University,            Denmark     (CC module)
  Frederik Beyer Hansen,    University of Copenhagen,     Denmark     (Parallel AO-SOPPA)
  Erik D. Hedegaard,        Univ. of Southern Denmark,    Denmark     (Polarizable embedding model, QM/MM)
  Hanne Heiberg,            University of Oslo,           Norway      (geometry analysis, selected one-electron integrals)
  Trygve Helgaker,          University of Oslo,           Norway      (DALTON; ABACUS, ERI, DFT modules, London, and much more)
  Alf Christian Hennum,     University of Oslo,           Norway      (Parity violation)
  Hinne Hettema,            University of Auckland,       New Zealand (quadratic response in RESPONS; SIRIUS supersymmetry)
  Eirik Hjertenaes,         NTNU,                         Norway      (Cholesky decomposition)
  Pi A. B. Haase,           University of Copenhagen,     Denmark     (Triplet AO-SOPPA)
  Maria Francesca Iozzi,    University of Oslo,           Norway      (RPA)
  Brano Jansik              Technical Univ. of Ostrava    Czech Rep.  (DFT cubic response)
  Hans Joergen Aa. Jensen,  Univ. of Southern Denmark,    Denmark     (DALTON; SIRIUS, RESPONS, ABACUS modules, London, and much more)
  Dan Jonsson,              UiT The Arctic U. of Norway,  Norway      (cubic response in RESPONS module)
  Poul Joergensen,          Aarhus University,            Denmark     (RESPONS, ABACUS, and CC modules)
  Maciej Kaminski,          University of Warsaw,         Poland      (CPPh in RESPONS)
  Joanna Kauczor,           Linkoeping University,        Sweden      (Complex polarization propagator (CPP) module)
  Sheela Kirpekar,          Univ. of Southern Denmark,    Denmark     (Mass-velocity & Darwin integrals)
  Wim Klopper,              KIT Karlsruhe,                Germany     (R12 code in CC, SIRIUS, and ABACUS modules)
  Stefan Knecht,            ETH Zurich,                   Switzerland (Parallel CI and MCSCF)
  Rika Kobayashi,           Australian National Univ.,    Australia   (DIIS in CC, London in MCSCF)
  Henrik Koch,              NTNU,                         Norway      (CC module, Cholesky decomposition)
  Jacob Kongsted,           Univ. of Southern Denmark,    Denmark     (Polarizable embedding model, QM/MM)
  Andrea Ligabue,           University of Modena,         Italy       (CTOCD, AOSOPPA)
  Nanna H. List             Univ. of Southern Denmark,    Denmark     (Polarizable embedding model)
  Ola B. Lutnaes,           University of Oslo,           Norway      (DFT Hessian)
  Juan I. Melo,             University of Buenos Aires,   Argentina   (LRESC, Relativistic Effects on NMR Shieldings)
  Kurt V. Mikkelsen,        University of Copenhagen,     Denmark     (MC-SCRF and QM/MM)
  Rolf H. Myhre,            NTNU,                         Norway      (Cholesky, subsystems and ECC2)
  Christian Neiss,          Univ. Erlangen-Nuernberg,     Germany     (CCSD(R12))
  Christian B. Nielsen,     University of Copenhagen,     Denmark     (QM/MM)
  Patrick Norman,           Linkoeping University,        Sweden      (Cubic response and complex frequency response in RESPONS)
  Jeppe Olsen,              Aarhus University,            Denmark     (SIRIUS CI/density modules)
  Jogvan Magnus H. Olsen,   Univ. of Southern Denmark,    Denmark     (Polarizable embedding model, QM/MM)
  Anders Osted,             Copenhagen University,        Denmark     (QM/MM)
  Martin J. Packer,         University of Sheffield,      UK          (SOPPA)
  Filip Pawlowski,          Kazimierz Wielki University,  Poland      (CC3)
  Morten N. Pedersen,       Univ. of Southern Denmark,    Denmark     (Polarizable embedding model)
  Thomas B. Pedersen,       University of Oslo,           Norway      (Cholesky decomposition)
  Patricio F. Provasi,      University of Northeastern,   Argentina   (Analysis of coupling constants in localized orbitals)
  Zilvinas Rinkevicius,     KTH Stockholm,                Sweden      (open-shell DFT, ESR)
  Elias Rudberg,            KTH Stockholm,                Sweden      (DFT grid and basis info)
  Torgeir A. Ruden,         University of Oslo,           Norway      (Numerical derivatives in ABACUS)
  Kenneth Ruud,             UiT The Arctic U. of Norway,  Norway      (DALTON; ABACUS magnetic properties and much more)
  Pawel Salek,              KTH Stockholm,                Sweden      (DALTON; DFT code)
  Claire C. M. Samson       University of Karlsruhe       Germany     (Boys localization, r12 integrals in ERI)
  Alfredo Sanchez de Meras, University of Valencia,       Spain       (CC module, Cholesky decomposition)
  Trond Saue,               Paul Sabatier University,     France      (direct Fock matrix construction)
  Stephan P. A. Sauer,      University of Copenhagen,     Denmark     (SOPPA(CCSD), SOPPA prop., AOSOPPA, vibrational g-factors)
  Bernd Schimmelpfennig,    Forschungszentrum Karlsruhe,  Germany     (AMFI module)
  Kristian Sneskov,         Aarhus University,            Denmark     (Polarizable embedding model, QM/MM)
  Arnfinn H. Steindal,      UiT The Arctic U. of Norway,  Norway      (parallel QM/MM, Polarizable embedding model)
  Casper Steinmann,         Univ. of Southern Denmark,    Denmark     (QFIT, Polarizable embedding model)
  K. O. Sylvester-Hvid,     University of Copenhagen,     Denmark     (MC-SCRF)
  Peter R. Taylor,          VLSCI/Univ. of Melbourne,     Australia   (Symmetry handling ABACUS, integral transformation)
  Andrew M. Teale,          University of Nottingham,     England     (DFT-AC, DFT-D)
  David P. Tew,             University of Bristol,        England     (CCSD(R12))
  Olav Vahtras,             KTH Stockholm,                Sweden      (triplet response, spin-orbit, ESR, TDDFT, open-shell DFT)
  David J. Wilson,          La Trobe University,          Australia   (DFT Hessian and DFT magnetizabilities)
  Hans Agren,               KTH Stockholm,                Sweden      (SIRIUS module, RESPONS, MC-SCRF solvation model)
 --------------------------------------------------------------------------------

     Date and time (Linux)  : Sun Jan 21 18:24:48 2018
     Host name              : vladimir-Kubuntu-16                     

 * Work memory size             :    64000000 =  488.28 megabytes.

 * Directories for basis set searches:
   1) /home/vladimir/git/molden2qmc/test/N4/DALTON/RHF/TZVP
   2) /home/vladimir/git/dalton/build/basis


Compilation information
-----------------------

 Who compiled             | vladimir
 Host                     | vladimir-Kubuntu-16
 System                   | Linux-4.10.0-42-generic
 CMake generator          | Unix Makefiles
 Processor                | x86_64
 64-bit integers          | OFF
 MPI                      | OFF
 Fortran compiler         | /usr/bin/gfortran
 Fortran compiler version | GNU Fortran (Ubuntu 6.3.0-12ubuntu2) 6.3.0 2017040
                          | 6
 C compiler               | /usr/bin/gcc
 C compiler version       | gcc (Ubuntu 6.3.0-12ubuntu2) 6.3.0 20170406
 C++ compiler             | /usr/bin/g++
 C++ compiler version     | g++ (Ubuntu 6.3.0-12ubuntu2) 6.3.0 20170406
 BLAS                     | /usr/lib/libopenblas.so
 LAPACK                   | /usr/lib/liblapack.so
 Static linking           | OFF
 Last Git revision        | 9303ffee678b31bc7478a34c517e03bc6fdd0083
 Git branch               | master
 Configuration time       | 2018-01-21 17:35:12.315804


   Content of the .dal input file
 ----------------------------------

**DALTON INPUT
.RUN WAVE FUNCTIONS
**WAVE FUNCTIONS
.HF
*END OF INPUT



   Content of the .mol file
 ----------------------------

BASIS
def2_tzvp
N4 molecule
---------------------------
Atomtypes=1 Charge=0 Angstrom
Atoms=4 Charge=7
N       0.5200      0.5300      0.5100
N      -0.5200     -0.5200      0.5200
N      -0.5200      0.5200     -0.5200
N       0.5200     -0.5200     -0.5200


       *******************************************************************
       *********** Output from DALTON general input processing ***********
       *******************************************************************

 --------------------------------------------------------------------------------
   Overall default print level:    0
   Print level for DALTON.STAT:    1

    HERMIT 1- and 2-electron integral sections will be executed
    "Old" integral transformation used (limited to max 255 basis functions)
    Wave function sections will be executed (SIRIUS module)
 --------------------------------------------------------------------------------


   ****************************************************************************
   *************** Output of molecule and basis set information ***************
   ****************************************************************************


    The two title cards from your ".mol" input:
    ------------------------------------------------------------------------
 1: N4 molecule                                                             
 2: ---------------------------                                             
    ------------------------------------------------------------------------

  Coordinates are entered in Angstrom and converted to atomic units.
          - Conversion factor : 1 bohr = 0.52917721 A

  Atomic type no.    1
  --------------------
  Nuclear charge:   7.00000
  Number of symmetry independent centers:    4
  Number of basis sets to read;    2
  Basis set file used for this atomic type with Z =   7 :
     "/home/vladimir/git/dalton/build/basis/def2_tzvp"

  Info about the basis set file: your basis has no documentation.
  Basis set: def2_tzvp                                                                       


                      SYMADD: Requested addition of symmetry
                      --------------------------------------

 Symmetry test threshold:  5.00E-06

@   The molecule is centered at center of mass and rotated
@   so principal axes of inertia are along coordinate axes.

 Symmetry class found: C(1)           

 Symmetry Independent Centres             
 ----------------------------
       7 :     -0.58082265    -0.80233656    -1.37739754  Isotope  1
       7 :      0.40472368     1.60467312    -0.39763722  Isotope  1
       7 :     -1.21417104     0.00000000     1.19291165  Isotope  1
       7 :      1.39027001    -0.80233656     0.58212311  Isotope  1

 No symmetry elements were found.


                         SYMGRP: Point group information
                         -------------------------------

@    Full point group is: C(1)           
@    Represented as:      C1 


                                 Isotopic Masses
                                 ---------------

                           N          14.003074
                           N          14.003074
                           N          14.003074
                           N          14.003074

                       Total mass:    56.012296 amu
                       Natural abundance:  98.528 %

 Center-of-mass coordinates (a.u.):   -0.000000    0.000000   -0.000000


  Atoms and basis sets
  --------------------

  Number of atom types :    1
  Total number of atoms:    4

  Basis set used is "def2_tzvp" from the basis set library.

  label    atoms   charge   prim   cont     basis
  ----------------------------------------------------------------------
  N           4    7.0000    46    31      [11s6p2d1f|5s3p2d1f]                               
  ----------------------------------------------------------------------
  total:      4   28.0000   184   124
  ----------------------------------------------------------------------
  Spherical harmonic basis used.

  Threshold for neglecting AO integrals:  1.00D-12


  Cartesian Coordinates (a.u.)
  ----------------------------

  Total number of coordinates:   12
  N       :     1  x  -1.2141710420    2  y   0.0000000000    3  z   1.1929116538
  N       :     4  x   1.3902700099    5  y  -0.8023365584    6  z   0.5821231056
  N       :     7  x  -0.5808226486    8  y  -0.8023365584    9  z  -1.3773975415
  N       :    10  x   0.4047236807   11  y   1.6046731167   12  z  -0.3976372179


   Interatomic separations (in Angstrom):
   --------------------------------------

            N           N           N           N     
            ------      ------      ------      ------
 N     :    0.000000
 N     :    1.477904    0.000000
 N     :    1.463762    1.470782    0.000000
 N     :    1.470850    1.470782    1.470782    0.000000


  Max    interatomic separation is    1.4779 Angstrom (    2.7928 Bohr)
  between atoms    2 and    1, "N     " and "N     ".

  Min YX interatomic separation is    1.4638 Angstrom (    2.7661 Bohr)


  Bond distances (Angstrom):
  --------------------------

                  atom 1     atom 2       distance
                  ------     ------       --------
  bond distance:  N          N            1.477904
  bond distance:  N          N            1.463762
  bond distance:  N          N            1.470782
  bond distance:  N          N            1.470850
  bond distance:  N          N            1.470782
  bond distance:  N          N            1.470782


  Bond angles (degrees):
  ----------------------

                  atom 1     atom 2     atom 3         angle
                  ------     ------     ------         -----
  bond angle:     N          N          N             59.995
  bond angle:     N          N          N             59.838
  bond angle:     N          N          N             60.156
  bond angle:     N          N          N             59.525
  bond angle:     N          N          N             59.843
  bond angle:     N          N          N             60.000
  bond angle:     N          N          N             60.479
  bond angle:     N          N          N             60.161
  bond angle:     N          N          N             60.000
  bond angle:     N          N          N             60.319
  bond angle:     N          N          N             59.683
  bond angle:     N          N          N             60.000




 Principal moments of inertia (u*A**2) and principal axes
 --------------------------------------------------------

   IA      30.114135          1.000000   -0.000000   -0.000000
   IB      30.293550          0.000000    1.000000    0.000000
   IC      30.470865          0.000000   -0.000000    1.000000


 Rotational constants
 --------------------

               A                   B                   C

          16782.1194          16682.7263          16585.6468 MHz
            0.559791            0.556476            0.553238 cm-1


@  Nuclear repulsion energy :  105.777940462098 Hartree


                     .---------------------------------------.
                     | Starting in Integral Section (HERMIT) |
                     `---------------------------------------'



 ***************************************************************************************
 ****************** Output from **INTEGRALS input processing (HERMIT) ******************
 ***************************************************************************************


 - Using defaults, no **INTEGRALS input found

 Default print level:        1

 * Nuclear model: Point charge

 Calculation of one- and two-electron Hamiltonian integrals.

 Center of mass  (bohr):     -0.000000000000      0.000000000000     -0.000000000000
 Operator center (bohr):      0.000000000000      0.000000000000      0.000000000000
 Gauge origin    (bohr):     -0.000000000000      0.000000000000     -0.000000000000
 Dipole origin   (bohr):     -0.000000000000      0.000000000000     -0.000000000000


     ************************************************************************
     ************************** Output from HERINT **************************
     ************************************************************************



                      Nuclear contribution to dipole moments
                      --------------------------------------

                 au               Debye          C m (/(10**-30)

      x      0.00000000         0.00000000         0.00000000
      y      0.00000000         0.00000000         0.00000000
      z     -0.00000000        -0.00000000        -0.00000000



 Threshold for neglecting two-electron integrals:  1.00D-12
 HERMIT - Number of two-electron integrals written:    28629522 ( 95.3% )
 HERMIT - Megabytes written:                            327.822

  Time used in TWOINT     is       7.40 seconds
  Total CPU  time used in HERMIT:   7.52 seconds
  Total wall time used in HERMIT:   7.52 seconds


                        .----------------------------------.
                        | End of Integral Section (HERMIT) |
                        `----------------------------------'



                   .--------------------------------------------.
                   | Starting in Wave Function Section (SIRIUS) |
                   `--------------------------------------------'


 *** Output from Huckel module :

     Using EWMO model:          T
     Using EHT  model:          F
     Number of Huckel orbitals each symmetry:   20

 EWMO - Energy Weighted Maximum Overlap - is a Huckel type method,
        which normally is better than Extended Huckel Theory.
 Reference: Linderberg and Ohrn, Propagators in Quantum Chemistry (Wiley, 1973)

 Huckel EWMO eigenvalues for symmetry :  1
          -15.676242     -15.670308     -15.670276     -15.670244      -2.063567
           -1.039702      -1.037311      -1.034948      -0.547278      -0.546205
           -0.545222      -0.541058      -0.514209      -0.510696      -0.283486
           -0.282728      -0.282037      -0.237807      -0.236447      -0.235029

 **********************************************************************
 *SIRIUS* a direct, restricted step, second order MCSCF program       *
 **********************************************************************

 
     Date and time (Linux)  : Sun Jan 21 18:24:56 2018
     Host name              : vladimir-Kubuntu-16                     

 Title lines from ".mol" input file:
     N4 molecule                                                             
     ---------------------------                                             

 Print level on unit LUPRI =   2 is   0
 Print level on unit LUW4  =   2 is   5

@    Restricted, closed shell Hartree-Fock calculation.

 Initial molecular orbitals are obtained according to
 ".MOSTART EWMO  " input option

     Wave function specification
     ============================
@    Wave function type        --- HF ---
@    Number of closed shell electrons          28
@    Number of electrons in active shells       0
@    Total charge of the molecule               0

@    Spin multiplicity and 2 M_S                1         0
@    Total number of symmetries                 1 (point group: C1 )
@    Reference state symmetry                   1 (irrep name : A  )

     Orbital specifications
     ======================
@    Abelian symmetry species          All |    1
@                                          |  A  
                                       --- |  ---
@    Occupied SCF orbitals              14 |   14
@    Secondary orbitals                110 |  110
@    Total number of orbitals          124 |  124
@    Number of basis functions         124 |  124

     Optimization information
     ========================
@    Number of configurations                 1
@    Number of orbital rotations           1540
     ------------------------------------------
@    Total number of variables             1541

     Maximum number of Fock   iterations      0
     Maximum number of DIIS   iterations     60
     Maximum number of QC-SCF iterations     60
     Threshold for SCF convergence     1.00D-05


 ***********************************************
 ***** DIIS acceleration of SCF iterations *****
 ***********************************************

 C1-DIIS algorithm; max error vectors =    8

 Iter      Total energy        Error norm    Delta(E)  DIIS dim.
 -----------------------------------------------------------------------------

Calculating AOSUPINT
     (Precalculated AO two-electron integrals are transformed to P-supermatrix elements.
      Threshold for discarding integrals :  1.00D-12 )
  CPU  time used in FORMSUP    is   1.96 seconds
  WALL time used in FORMSUP    is   1.96 seconds
@  1    -216.769085434        3.97795D+00   -2.17D+02    1
      Virial theorem: -V/T =      2.008701
@    MULPOP   N       0.00; N      -0.00; N       0.00; N      -0.00; 
   1  Level shift: doubly occupied orbital energies shifted by -2.00D-01
 -----------------------------------------------------------------------------
@  2    -217.535838002        1.26266D+00   -7.67D-01    2
      Virial theorem: -V/T =      1.997138
@    MULPOP   N      -0.00; N       0.00; N      -0.00; N      -0.00; 
   2  Level shift: doubly occupied orbital energies shifted by -1.00D-01
 -----------------------------------------------------------------------------
@  3    -217.595365878        2.03777D-01   -5.95D-02    3
      Virial theorem: -V/T =      2.003790
@    MULPOP   N      -0.00; N      -0.00; N       0.00; N       0.00; 
   3  Level shift: doubly occupied orbital energies shifted by -2.50D-02
 -----------------------------------------------------------------------------
@  4    -217.599075849        4.24985D-02   -3.71D-03    4
      Virial theorem: -V/T =      2.003487
@    MULPOP   N      -0.00; N       0.00; N      -0.00; N      -0.00; 
 -----------------------------------------------------------------------------
@  5    -217.599310996        1.48365D-02   -2.35D-04    5
      Virial theorem: -V/T =      2.003624
@    MULPOP   N       0.00; N      -0.00; N       0.00; N       0.00; 
 -----------------------------------------------------------------------------
@  6    -217.599332616        8.94797D-03   -2.16D-05    6
      Virial theorem: -V/T =      2.003630
@    MULPOP   N      -0.00; N       0.00; N      -0.00; N      -0.00; 
 -----------------------------------------------------------------------------
@  7    -217.599339642        1.87167D-03   -7.03D-06    7
      Virial theorem: -V/T =      2.003637
@    MULPOP   N       0.00; N      -0.00; N       0.00; N      -0.00; 
 -----------------------------------------------------------------------------
@  8    -217.599340258        3.48844D-04   -6.15D-07    8
      Virial theorem: -V/T =      2.003650
@    MULPOP   N      -0.00; N      -0.00; N       0.00; N       0.00; 
 -----------------------------------------------------------------------------
@  9    -217.599340273        1.51292D-04   -1.52D-08    8
      Virial theorem: -V/T =      2.003650
@    MULPOP   N       0.00; N      -0.00; N       0.00; N      -0.00; 
 -----------------------------------------------------------------------------
@ 10    -217.599340274        2.50030D-05   -1.21D-09    8
      Virial theorem: -V/T =      2.003650
@    MULPOP   N      -0.00; N      -0.00; N       0.00; N      -0.00; 
 -----------------------------------------------------------------------------
@ 11    -217.599340274        7.66429D-06   -6.49D-11    8

@ *** DIIS converged in  11 iterations !
@     Converged SCF energy, gradient:   -217.599340274254    7.66D-06
    - total time used in SIRFCK :              0.00 seconds


 *** SCF orbital energy analysis ***

 Only the 20 lowest virtual orbital energies printed in each symmetry.

 Number of electrons :   28
 Orbital occupations :   14

 Sym       Hartree-Fock orbital energies

1 A     -15.75086810   -15.74995419   -15.74994239   -15.74991792    -1.65309040
         -1.04440331    -1.04102945    -1.03770483    -0.68590059    -0.57029222
         -0.56915384    -0.56795325    -0.53417999    -0.52891193     0.18892323
          0.19096191     0.19254585     0.21197486     0.21368416     0.21574923
          0.35925689     0.46815343     0.46893803     0.46968538     0.47809320
          0.47947339     0.53849258     0.54224003     0.54405579     0.54612048
          0.62669939     0.62706106     0.62746392     0.74591982

    E(LUMO) :     0.18892323 au (symmetry 1)
  - E(HOMO) :    -0.52891193 au (symmetry 1)
  ------------------------------------------
    gap     :     0.71783516 au

 --- Writing SIRIFC interface file

 CPU and wall time for SCF :       4.604       4.605


                       .-----------------------------------.
                       | --- Final results from SIRIUS --- |
                       `-----------------------------------'


@    Spin multiplicity:           1
@    Spatial symmetry:            1 ( irrep  A   in C1  )
@    Total charge of molecule:    0

@    Final HF energy:            -217.599340274254                 
@    Nuclear repulsion:           105.777940462098
@    Electronic energy:          -323.377280736352

@    Final gradient norm:           0.000007664294

 
     Date and time (Linux)  : Sun Jan 21 18:25:00 2018
     Host name              : vladimir-Kubuntu-16                     

File label for MO orbitals:  21Jan18   FOCKDIIS

 (Only coefficients > 0.0100 are printed.)

 Molecular orbitals for symmetry species 1  (A  )
 ------------------------------------------------

    Orbital         5        6        7        8        9       10       11
   1 N   :1s     0.0458   0.0562  -0.0159   0.0561   0.0225  -0.0238   0.0253
   2 N   :1s     0.1056   0.1319  -0.0374   0.1315   0.0537  -0.0567   0.0603
   3 N   :1s    -0.1491  -0.1942   0.0550  -0.1935  -0.0934   0.0982  -0.1046
   4 N   :1s    -0.1790  -0.3119   0.0888  -0.3136  -0.1300   0.1351  -0.1434
   5 N   :1s    -0.0183  -0.0964   0.0277  -0.0989  -0.1059   0.0909  -0.0966
   6 N   :2px   -0.0596   0.0696  -0.0013  -0.0586   0.1409  -0.0078   0.1053
   7 N   :2py    0.0000   0.0189   0.1283   0.0175   0.0000  -0.0760  -0.1482
   8 N   :2pz    0.0601   0.0613   0.0018  -0.0722  -0.1386   0.1952  -0.1080
   9 N   :2px   -0.0511   0.0353   0.0056  -0.0742   0.1246  -0.0028   0.0972
  10 N   :2py    0.0000   0.0158   0.1086   0.0150   0.0000  -0.0735  -0.1433
  11 N   :2pz    0.0512   0.0754  -0.0055  -0.0366  -0.1222   0.1837  -0.0994
  12 N   :2px   -0.0033   0.0081   0.0004  -0.0113   0.0471  -0.0160   0.0553
  13 N   :2py    0.0000   0.0028   0.0191   0.0027   0.0000  -0.0299  -0.0584
  14 N   :2pz    0.0033   0.0113  -0.0005  -0.0082  -0.0461   0.0894  -0.0561
  18 N   :3d1+   0.0069  -0.0007  -0.0009  -0.0010  -0.0103   0.0011  -0.0022
  20 N   :3d2-  -0.0001  -0.0002   0.0160   0.0046  -0.0000  -0.0051  -0.0154
  21 N   :3d1-  -0.0001  -0.0048  -0.0159   0.0002  -0.0000   0.0112   0.0162
  22 N   :3d0   -0.0045  -0.0172  -0.0013   0.0111   0.0070  -0.0201  -0.0005
  23 N   :3d1+   0.0156   0.0091  -0.0051   0.0090  -0.0252   0.0042  -0.0083
  24 N   :3d2+  -0.0078   0.0029  -0.0023  -0.0133   0.0128   0.0050  -0.0009
  32 N   :1s     0.0454  -0.0602   0.0429   0.0336   0.0225   0.0404   0.0079
  33 N   :1s     0.1049  -0.1412   0.1005   0.0787   0.0537   0.0964   0.0188
  34 N   :1s    -0.1482   0.2080  -0.1481  -0.1159  -0.0934  -0.1672  -0.0326
  35 N   :1s    -0.1776   0.3338  -0.2382  -0.1874  -0.1300  -0.2291  -0.0445
  36 N   :1s    -0.0184   0.1034  -0.0747  -0.0593  -0.1064  -0.1545  -0.0303
  37 N   :2px    0.0682   0.0558   0.0329   0.0378  -0.1598  -0.1741  -0.1387
  38 N   :2py   -0.0396   0.0603   0.0981  -0.0050   0.0922   0.1174  -0.1060
  39 N   :2pz    0.0292  -0.0294   0.0398  -0.1122  -0.0670  -0.1274   0.0513
  40 N   :2px    0.0582   0.0182   0.0487   0.0488  -0.1410  -0.1595  -0.1325
  41 N   :2py   -0.0337   0.0678   0.0709  -0.0139   0.0814   0.1083  -0.1034
  42 N   :2pz    0.0248  -0.0373   0.0426  -0.0881  -0.0589  -0.1191   0.0504
  43 N   :2px    0.0038   0.0055   0.0071   0.0075  -0.0531  -0.0934  -0.0591
  44 N   :2py   -0.0022   0.0106   0.0133  -0.0018   0.0307   0.0603  -0.0387
  45 N   :2pz    0.0016  -0.0056   0.0069  -0.0161  -0.0222  -0.0605   0.0183
  51 N   :3d2-   0.0118  -0.0110  -0.0032   0.0093  -0.0191  -0.0067   0.0103
  52 N   :3d1-   0.0050  -0.0103  -0.0029  -0.0041  -0.0080  -0.0070   0.0099
  53 N   :3d0    0.0058  -0.0029  -0.0038   0.0120  -0.0093   0.0014  -0.0118
  54 N   :3d1+  -0.0087   0.0081  -0.0129   0.0125   0.0139   0.0087  -0.0000
  55 N   :3d2+  -0.0068  -0.0090  -0.0163  -0.0097   0.0110   0.0019   0.0205
  63 N   :1s     0.0461   0.0332   0.0426  -0.0602   0.0225  -0.0078   0.0066
  64 N   :1s     0.1063   0.0778   0.1000  -0.1411   0.0537  -0.0187   0.0158
  65 N   :1s    -0.1499  -0.1145  -0.1471   0.2075  -0.0935   0.0324  -0.0273
  66 N   :1s    -0.1804  -0.1842  -0.2380   0.3364  -0.1299   0.0447  -0.0376
  67 N   :1s    -0.0182  -0.0567  -0.0740   0.1059  -0.1054   0.0301  -0.0250
  68 N   :2px   -0.0286   0.1134  -0.0398   0.0288   0.0681   0.1416  -0.0566
  69 N   :2py   -0.0402  -0.0051   0.0990   0.0600   0.0941  -0.1179  -0.1180
  70 N   :2pz   -0.0694  -0.0398  -0.0334  -0.0589   0.1616  -0.0489   0.1429
  71 N   :2px   -0.0246   0.0890  -0.0425   0.0369   0.0603   0.1377  -0.0554
  72 N   :2py   -0.0344  -0.0137   0.0715   0.0683   0.0832  -0.1129  -0.1151
  73 N   :2pz   -0.0594  -0.0497  -0.0496  -0.0196   0.1428  -0.0453   0.1366
  74 N   :2px   -0.0015   0.0161  -0.0067   0.0055   0.0229   0.0535  -0.0205
  75 N   :2py   -0.0022  -0.0016   0.0135   0.0107   0.0315  -0.0492  -0.0442
  76 N   :2pz   -0.0037  -0.0073  -0.0070  -0.0056   0.0542  -0.0240   0.0608
  82 N   :3d2-  -0.0051   0.0043   0.0030   0.0103   0.0082   0.0107  -0.0103
  83 N   :3d1-  -0.0122  -0.0093   0.0032   0.0112   0.0195  -0.0150  -0.0107
  84 N   :3d0   -0.0090  -0.0144  -0.0124  -0.0063   0.0144  -0.0016   0.0249
  85 N   :3d1+  -0.0087   0.0129  -0.0129   0.0079   0.0141   0.0150  -0.0006
  86 N   :3d2+   0.0017   0.0054  -0.0116  -0.0071  -0.0027   0.0158   0.0013
  94 N   :1s     0.0457  -0.0297  -0.0696  -0.0290   0.0225  -0.0086  -0.0398
  95 N   :1s     0.1056  -0.0697  -0.1632  -0.0680   0.0537  -0.0206  -0.0949
  96 N   :1s    -0.1490   0.1025   0.2402   0.1002  -0.0934   0.0357   0.1644
  97 N   :1s    -0.1790   0.1652   0.3874   0.1617  -0.1300   0.0492   0.2255
  98 N   :1s    -0.0183   0.0509   0.1210   0.0512  -0.1059   0.0334   0.1520
  99 N   :2px    0.0202   0.1185  -0.0430  -0.0114  -0.0470   0.1847   0.0245
 100 N   :2py    0.0798  -0.0232   0.0314  -0.0222  -0.1864   0.0064   0.2424
 101 N   :2pz   -0.0197   0.0116   0.0419  -0.1203   0.0462  -0.0018  -0.0121
 102 N   :2px    0.0172   0.0959  -0.0464  -0.0139  -0.0415   0.1780   0.0212
 103 N   :2py    0.0682  -0.0365  -0.0132  -0.0354  -0.1645   0.0039   0.2243
 104 N   :2pz   -0.0169   0.0140   0.0453  -0.0978   0.0408  -0.0012  -0.0091
 105 N   :2px    0.0011   0.0171  -0.0074  -0.0022  -0.0156   0.0737   0.0172
 106 N   :2py    0.0044  -0.0050   0.0007  -0.0051  -0.0622   0.0086   0.1242
 107 N   :2pz   -0.0010   0.0021   0.0072  -0.0176   0.0155  -0.0022  -0.0116
 108 N   :3d2-  -0.0031  -0.0107   0.0031   0.0023   0.0046  -0.0095   0.0006
 109 N   :3d1-   0.0030  -0.0023  -0.0030   0.0108  -0.0045  -0.0003  -0.0012
 113 N   :3d2-  -0.0070  -0.0164   0.0112   0.0068   0.0113  -0.0240   0.0002
 114 N   :3d1-   0.0069  -0.0068  -0.0110   0.0167  -0.0111   0.0000  -0.0019
 115 N   :3d0    0.0076  -0.0042  -0.0026  -0.0078  -0.0121   0.0050   0.0069
 117 N   :3d2+   0.0130  -0.0116  -0.0043  -0.0093  -0.0210  -0.0131   0.0117

    Orbital        12       13       14       15       16       17       18
   1 N   :1s    -0.0232  -0.0005   0.0005   0.0039   0.0007   0.0038   0.0310
   2 N   :1s    -0.0555  -0.0013   0.0011   0.0091   0.0017   0.0090   0.0728
   3 N   :1s     0.0962   0.0024  -0.0021  -0.0099  -0.0018  -0.0097  -0.0748
   4 N   :1s     0.1315   0.0028  -0.0024  -0.0341  -0.0063  -0.0342  -0.2790
   5 N   :1s     0.0887   0.0012  -0.0009  -0.2603  -0.0482  -0.2648  -2.3479
   6 N   :2px   -0.1891  -0.1143   0.1171  -0.1747  -0.0300  -0.1546  -0.1065
   7 N   :2py   -0.0830  -0.1604  -0.1635   0.2091  -0.0128  -0.2253  -0.0082
   8 N   :2pz    0.0047  -0.1116   0.1151  -0.1483  -0.0252  -0.1287   0.0813
   9 N   :2px   -0.1789  -0.1125   0.1158  -0.1812  -0.0313  -0.1621  -0.1579
  10 N   :2py   -0.0803  -0.1575  -0.1613   0.2088  -0.0130  -0.2263  -0.0093
  11 N   :2pz    0.0002  -0.1094   0.1134  -0.1413  -0.0240  -0.1224   0.1477
  12 N   :2px   -0.0874  -0.0567   0.0591  -0.5079  -0.0863  -0.4423  -1.2870
  13 N   :2py   -0.0328  -0.0790  -0.0820   0.5194  -0.0220  -0.5331  -0.0147
  14 N   :2pz    0.0144  -0.0545   0.0573  -0.2966  -0.0472  -0.2278   0.5770
  20 N   :3d2-  -0.0121  -0.0032  -0.0230  -0.0021  -0.0008  -0.0074   0.0028
  21 N   :3d1-   0.0055   0.0227   0.0034  -0.0085  -0.0010  -0.0018   0.0031
  22 N   :3d0    0.0144   0.0217  -0.0102   0.0053   0.0004  -0.0021  -0.0024
  23 N   :3d1+   0.0039   0.0070   0.0069   0.0101   0.0013   0.0031   0.0574
  24 N   :3d2+  -0.0144   0.0012   0.0198  -0.0007  -0.0009  -0.0106  -0.0374
  32 N   :1s    -0.0078   0.0003   0.0003  -0.0033  -0.0005  -0.0009  -0.0382
  33 N   :1s    -0.0187   0.0008   0.0007  -0.0078  -0.0013  -0.0021  -0.0897
  34 N   :1s     0.0325  -0.0014  -0.0012   0.0085   0.0013   0.0024   0.0916
  35 N   :1s     0.0443  -0.0018  -0.0013   0.0291   0.0047   0.0078   0.3473
  36 N   :1s     0.0299  -0.0016  -0.0003   0.2225   0.0391   0.0592   2.8970
  37 N   :2px    0.0462   0.1058  -0.0849  -0.1552  -0.1133   0.0133  -0.1415
  38 N   :2py   -0.1181   0.2066   0.0134  -0.0443  -0.2430   0.1082   0.0587
  39 N   :2pz   -0.1364   0.0254   0.2168   0.2569  -0.0744   0.1047  -0.0673
  40 N   :2px    0.0432   0.1042  -0.0839  -0.1615  -0.1146   0.0120  -0.2210
  41 N   :2py   -0.1133   0.2029   0.0133  -0.0405  -0.2426   0.1091   0.1121
  42 N   :2pz   -0.1326   0.0249   0.2134   0.2532  -0.0752   0.1030  -0.1074
  43 N   :2px    0.0233   0.0519  -0.0428  -0.4600  -0.2878   0.0003  -1.5422
  44 N   :2py   -0.0494   0.1017   0.0069  -0.0660  -0.5761   0.2876   0.4874
  45 N   :2pz   -0.0519   0.0124   0.1084   0.6178  -0.1774   0.2944  -0.4437
  49 N   :3d1+   0.0061  -0.0024  -0.0101   0.0076  -0.0029   0.0047  -0.0010
  50 N   :3d2+   0.0027  -0.0081   0.0056  -0.0065  -0.0058   0.0009  -0.0109
  51 N   :3d2-   0.0150  -0.0037  -0.0077  -0.0027   0.0061  -0.0048  -0.0521
  52 N   :3d1-  -0.0105  -0.0175  -0.0008   0.0055  -0.0049   0.0042  -0.0180
  53 N   :3d0    0.0142  -0.0143  -0.0073  -0.0109  -0.0048  -0.0013  -0.0272
  54 N   :3d1+   0.0142  -0.0067  -0.0273   0.0048   0.0014  -0.0003   0.0375
  55 N   :3d2+   0.0068  -0.0229   0.0150   0.0015   0.0041  -0.0013   0.0423
  63 N   :1s     0.0403  -0.0003  -0.0003  -0.0006  -0.0006  -0.0030   0.0168
  64 N   :1s     0.0962  -0.0007  -0.0007  -0.0014  -0.0013  -0.0070   0.0396
  65 N   :1s    -0.1668   0.0014   0.0013   0.0015   0.0013   0.0075  -0.0407
  66 N   :1s    -0.2289   0.0015   0.0017   0.0056   0.0050   0.0267  -0.1510
  67 N   :1s    -0.1541   0.0004   0.0015   0.0422   0.0418   0.2099  -1.2837
  68 N   :2px    0.1219  -0.2106  -0.0276   0.1164  -0.0655   0.2537  -0.0966
  69 N   :2py    0.1197   0.0157   0.1971  -0.0831   0.2555   0.0536  -0.0194
  70 N   :2pz    0.1763   0.0774  -0.1057   0.0034  -0.1168  -0.1184  -0.0366
  71 N   :2px    0.1145  -0.2073  -0.0273   0.1182  -0.0650   0.2581  -0.1019
  72 N   :2py    0.1107   0.0154   0.1944  -0.0828   0.2569   0.0574  -0.0435
  73 N   :2pz    0.1616   0.0759  -0.1041   0.0045  -0.1157  -0.1128  -0.0764
  74 N   :2px    0.0589  -0.1041  -0.0139   0.2368  -0.1617   0.6147  -0.9767
  75 N   :2py    0.0622   0.0076   0.0988  -0.1784   0.6336   0.1707  -0.1842
  76 N   :2pz    0.0950   0.0379  -0.0531   0.0346  -0.2693  -0.2062  -0.3688
  80 N   :3d1+   0.0026  -0.0102  -0.0023  -0.0021   0.0031  -0.0061   0.0172
  82 N   :3d2-   0.0071   0.0014   0.0171   0.0042  -0.0047   0.0083  -0.0158
  83 N   :3d1-   0.0065   0.0078   0.0028  -0.0009   0.0087   0.0059  -0.0175
  84 N   :3d0    0.0011   0.0153  -0.0115   0.0024  -0.0053   0.0006  -0.0081
  85 N   :3d1+   0.0081  -0.0274  -0.0066  -0.0008  -0.0009   0.0006  -0.0348
  86 N   :3d2+   0.0017   0.0016  -0.0239   0.0011   0.0020   0.0067  -0.0044
  95 N   :1s    -0.0224   0.0014  -0.0012   0.0001   0.0009   0.0001  -0.0222
  96 N   :1s     0.0390  -0.0025   0.0021  -0.0001  -0.0008  -0.0001   0.0226
  97 N   :1s     0.0532  -0.0032   0.0027  -0.0005  -0.0034  -0.0004   0.0863
  98 N   :1s     0.0356  -0.0025   0.0021  -0.0045  -0.0327  -0.0042   0.7320
  99 N   :2px    0.0048   0.2243  -0.0054   0.1716   0.2035  -0.1316  -0.0794
 100 N   :2py    0.0118  -0.0588  -0.0499  -0.0664   0.0071   0.0782  -0.0224
 101 N   :2pz   -0.1929   0.0078  -0.2211  -0.0954   0.2218   0.1802   0.0034
 102 N   :2px    0.0041   0.2208  -0.0054   0.1729   0.2045  -0.1315  -0.0740
 103 N   :2py    0.0091  -0.0577  -0.0493  -0.0666   0.0083   0.0782  -0.0501
 104 N   :2pz   -0.1860   0.0076  -0.2177  -0.0959   0.2216   0.1796   0.0107
 105 N   :2px    0.0037   0.1105  -0.0026   0.3668   0.4899  -0.3430  -0.8664
 106 N   :2py    0.0117  -0.0293  -0.0248  -0.1416   0.0333   0.2091  -0.2128
 107 N   :2pz   -0.0783   0.0039  -0.1108  -0.2112   0.5420   0.4834   0.0215
 108 N   :3d2-   0.0003  -0.0081   0.0033   0.0024   0.0064  -0.0022  -0.0158
 113 N   :3d2-  -0.0002  -0.0231   0.0084  -0.0027  -0.0016   0.0046   0.0285
 114 N   :3d1-   0.0247  -0.0085   0.0223   0.0029  -0.0017  -0.0054  -0.0032
 115 N   :3d0   -0.0136  -0.0102   0.0021   0.0007   0.0102   0.0033  -0.0071
 116 N   :3d1+   0.0025   0.0189   0.0188  -0.0057   0.0003   0.0049  -0.0096
 117 N   :3d2+  -0.0020  -0.0047  -0.0109  -0.0025  -0.0047   0.0029  -0.0065

    Orbital        19       20       21       22       23       24
   1 N   :1s    -0.0044  -0.0331  -0.0198   0.0072  -0.0005  -0.0079
   2 N   :1s    -0.0103  -0.0777  -0.0409   0.0091  -0.0007  -0.0107
   3 N   :1s     0.0104   0.0774  -0.0137   0.1175  -0.0082  -0.1186
   4 N   :1s     0.0403   0.3067   0.4074  -0.3888   0.0286   0.4370
   5 N   :1s     0.3413   2.6143  -0.5804  -1.2656   0.0841   1.1310
   6 N   :2px    0.0189   0.0543  -0.0556   0.1099  -0.0085  -0.1202
   7 N   :2py    0.0583  -0.0173  -0.0000  -0.0013  -0.0141  -0.0002
   8 N   :2pz   -0.0078  -0.1458   0.0547  -0.1240   0.0077   0.1064
   9 N   :2px    0.0290   0.1268  -0.2038   0.0087  -0.0110  -0.2679
  10 N   :2py    0.0454  -0.0168   0.0000  -0.0172  -0.2687   0.0016
  11 N   :2pz   -0.0153  -0.2079   0.2006  -0.2778   0.0085   0.0004
  12 N   :2px    0.1294   0.6120   0.3884  -1.0412   0.0826   1.1310
  13 N   :2py    0.7753  -0.1183   0.0000   0.0147   0.1391   0.0047
  14 N   :2pz   -0.1416  -1.4605  -0.3781   1.1684  -0.0690  -0.9836
  15 N   :3d2-  -0.0125  -0.0029  -0.0000   0.0015  -0.0085   0.0023
  16 N   :3d1-   0.0118  -0.0062  -0.0000   0.0028   0.0084   0.0024
  17 N   :3d0    0.0031  -0.0129  -0.0028   0.0127   0.0019   0.0023
  18 N   :3d1+   0.0050   0.0050   0.0099  -0.0180   0.0035   0.0172
  19 N   :3d2+   0.0064   0.0028  -0.0050   0.0050   0.0026  -0.0129
  20 N   :3d2-   0.0173   0.0001   0.0002   0.0066  -0.0571   0.0096
  21 N   :3d1-  -0.0163   0.0049   0.0002   0.0126   0.0563   0.0078
  22 N   :3d0    0.0005   0.0335   0.0035   0.0174   0.0096   0.0812
  23 N   :3d1+  -0.0110  -0.0638  -0.0125   0.1107   0.0015  -0.1112
  24 N   :3d2+  -0.0001   0.0235   0.0063  -0.0829   0.0180   0.0265
  26 N   :4f2-   0.0006  -0.0011  -0.0018   0.0026   0.0108  -0.0019
  29 N   :4f1+  -0.0002   0.0020  -0.0022   0.0023  -0.0007   0.0104
  32 N   :1s    -0.0222  -0.0119  -0.0199  -0.0083   0.0055  -0.0041
  33 N   :1s    -0.0521  -0.0279  -0.0411  -0.0107   0.0074  -0.0056
  34 N   :1s     0.0526   0.0276  -0.0133  -0.1313   0.0830  -0.0595
  35 N   :1s     0.2034   0.1114   0.4128   0.4516  -0.2963   0.2254
  36 N   :1s     1.7016   0.9399  -0.6139   1.3929  -0.8231   0.5559
  37 N   :2px   -0.0486  -0.0335   0.0622   0.1469  -0.0968   0.0692
  38 N   :2py    0.0930   0.0145  -0.0362  -0.0895   0.0449  -0.0404
  39 N   :2pz   -0.0370  -0.0508   0.0262   0.0671  -0.0432   0.0148
  40 N   :2px   -0.1035  -0.0653   0.2323   0.0937  -0.2065   0.1528
  41 N   :2py    0.1119   0.0335  -0.1341  -0.2083  -0.1341  -0.0857
  42 N   :2pz   -0.0590  -0.0499   0.0974   0.1473  -0.1034  -0.1993
  43 N   :2px   -0.4391  -0.2527  -0.4270  -1.3773   0.9128  -0.6434
  44 N   :2py    1.0577   0.0760   0.2489   0.8458  -0.4138   0.3750
  45 N   :2pz   -0.3031  -0.8359  -0.1782  -0.6240   0.4008  -0.1385
  46 N   :3d2-   0.0061  -0.0036   0.0074   0.0157  -0.0063   0.0098
  49 N   :3d1+   0.0009  -0.0162  -0.0054  -0.0131   0.0107   0.0046
  50 N   :3d2+   0.0117   0.0036  -0.0043  -0.0026   0.0131  -0.0072
  51 N   :3d2-  -0.0398  -0.0103  -0.0088  -0.0847   0.0887  -0.0215
  52 N   :3d1-  -0.0218  -0.0111  -0.0038  -0.0176   0.0488  -0.0361
  53 N   :3d0   -0.0194   0.0024  -0.0046  -0.0508   0.0472   0.0158
  54 N   :3d1+   0.0189   0.0313   0.0065   0.0582  -0.0198   0.0888
  55 N   :3d2+   0.0010   0.0059   0.0047   0.0972   0.0195   0.0050
  63 N   :1s    -0.0179   0.0387  -0.0197   0.0036   0.0049   0.0088
  64 N   :1s    -0.0420   0.0908  -0.0406   0.0044   0.0063   0.0116
  65 N   :1s     0.0425  -0.0909  -0.0140   0.0602   0.0799   0.1350
  66 N   :1s     0.1624  -0.3554   0.4017  -0.1932  -0.2739  -0.4793
  67 N   :1s     1.3926  -3.0571  -0.5460  -0.6616  -0.8303  -1.3106
  68 N   :2px    0.0121  -0.0116  -0.0271   0.0171   0.0391   0.0661
  69 N   :2py    0.0810  -0.0567  -0.0373   0.0413   0.0395   0.0951
  70 N   :2pz    0.0410  -0.1631  -0.0646   0.0731   0.0961   0.1418
  71 N   :2px    0.0302  -0.0516  -0.0980  -0.2040   0.0971   0.1504
  72 N   :2py    0.0942  -0.1128  -0.1355   0.0807  -0.1512   0.2205
  73 N   :2pz    0.0874  -0.2498  -0.2326   0.1649   0.2078   0.0769
  74 N   :2px    0.1635  -0.2531   0.1922  -0.1487  -0.3750  -0.6304
  75 N   :2py    0.9925  -0.5657   0.2623  -0.3947  -0.3684  -0.8933
  76 N   :2pz    0.3120  -1.6610   0.4544  -0.6980  -0.9027  -1.3293
  77 N   :3d2-  -0.0093  -0.0023  -0.0032   0.0010  -0.0009   0.0101
  78 N   :3d1-  -0.0061   0.0053  -0.0077   0.0104   0.0054   0.0164
  79 N   :3d0    0.0066   0.0113  -0.0057   0.0113   0.0122   0.0053
  80 N   :3d1+   0.0027  -0.0020  -0.0056  -0.0048   0.0104   0.0133
  81 N   :3d2+   0.0124   0.0037   0.0011  -0.0033   0.0061  -0.0057
  82 N   :3d2-   0.0189  -0.0170   0.0042  -0.0361  -0.0474  -0.0177
  83 N   :3d1-   0.0346  -0.0563   0.0104  -0.0232  -0.0857  -0.0901
  84 N   :3d0    0.0064  -0.0531   0.0077   0.0043  -0.0070  -0.1089
  85 N   :3d1+   0.0132  -0.0354   0.0073  -0.0908  -0.0166  -0.0571
  86 N   :3d2+  -0.0168   0.0054  -0.0011  -0.0138   0.0522  -0.0033
  94 N   :1s     0.0444   0.0065  -0.0198  -0.0029  -0.0099   0.0029
  95 N   :1s     0.1044   0.0152  -0.0409  -0.0036  -0.0130   0.0039
  96 N   :1s    -0.1056  -0.0153  -0.0137  -0.0474  -0.1546   0.0421
  97 N   :1s    -0.4059  -0.0593   0.4073   0.1626   0.5407  -0.1501
  98 N   :1s    -3.4357  -0.4996  -0.5804   0.5163   1.5698  -0.3945
  99 N   :2px    0.0284   0.0059   0.0182   0.0077   0.0555  -0.0151
 100 N   :2py    0.1845   0.0161   0.0735   0.0645   0.1993  -0.0580
 101 N   :2pz   -0.0421  -0.0476  -0.0186  -0.0159  -0.0522  -0.0049
 102 N   :2px    0.0607   0.0102   0.0681  -0.2186   0.1369  -0.0353
 103 N   :2py    0.2999   0.0360   0.2696   0.1298   0.2083  -0.1278
 104 N   :2pz   -0.0722  -0.0388  -0.0667  -0.0345  -0.1207  -0.2494
 105 N   :2px    0.2874   0.0670  -0.1255  -0.0546  -0.5228   0.1420
 106 N   :2py    1.8805   0.0863  -0.5109  -0.6087  -1.8707   0.5458
 107 N   :2pz   -0.3698  -0.7810   0.1299   0.1500   0.4923   0.0400
 108 N   :3d2-   0.0003  -0.0032  -0.0044   0.0064  -0.0129   0.0057
 109 N   :3d1-  -0.0022  -0.0148   0.0043   0.0058   0.0120   0.0078
 110 N   :3d0   -0.0046   0.0011   0.0048   0.0056   0.0102  -0.0052
 112 N   :3d2+  -0.0074   0.0052   0.0082   0.0089   0.0172  -0.0090
 113 N   :3d2-  -0.0339  -0.0022   0.0052   0.0880   0.0486  -0.0032
 114 N   :3d1-   0.0351   0.0256  -0.0059  -0.0047  -0.0498   0.0836
 115 N   :3d0    0.0422   0.0003  -0.0062  -0.0142  -0.0786   0.0008
 116 N   :3d1+   0.0063   0.0110  -0.0014  -0.0327   0.0001   0.0324
 117 N   :3d2+   0.0726   0.0031  -0.0102  -0.0089  -0.1340   0.0123
 124 N   :4f3+  -0.0029  -0.0012  -0.0011   0.0111   0.0028   0.0022

  Total CPU  time used in SIRIUS :   4.86 seconds
  Total wall time used in SIRIUS :   4.86 seconds

 
     Date and time (Linux)  : Sun Jan 21 18:25:00 2018
     Host name              : vladimir-Kubuntu-16                     


                     .---------------------------------------.
                     | End of Wave Function Section (SIRIUS) |
                     `---------------------------------------'

  Total CPU  time used in DALTON:  12.43 seconds
  Total wall time used in DALTON:  12.44 seconds

 
     Date and time (Linux)  : Sun Jan 21 18:25:00 2018
     Host name              : vladimir-Kubuntu-16                     
