[Molden Format]                                                                 
[ATOMS] AU                                                                      
N        1    7        1.2141712962       -0.0000000000        1.1929119035     
N        2    7       -1.3902703010        0.8023367264        0.5821232275     
N        3    7        0.5808227702        0.8023367264       -1.3773978299     
N        4    7       -0.4047237654       -1.6046734527       -0.3976373012     
[Molden Format]                                                                 
[GTO]                                                                           
  1 0
s   5 1.00
   1712.8415852999999       -5.3933999999999996E-003                            
   257.64812680000000       -4.0221600000000003E-002                            
   58.458245900000001      -0.17931140000000001                                 
   16.198367900000001      -0.46376319999999999                                 
   5.0052601000000001      -0.44171420000000000                                 
s   2 1.00
  0.58731860000000002        1.0000000000000000                                 
  0.18764590000000000        0.0000000000000000                                 
s   2 1.00
  0.58731860000000002        0.0000000000000000                                 
  0.18764590000000000        1.0000000000000000                                 
p   3 1.00
   13.571470200000000       -4.0072400000000001E-002                            
   2.9257373000000002      -0.21807050000000000                                 
  0.79927749999999997      -0.51294470000000003                                 
p   1 1.00
  0.21954350000000000        1.0000000000000000                                 
d   1 1.00
   1.0000000000000000        1.0000000000000000                                 

  2 0
s   5 1.00
   1712.8415852999999       -5.3933999999999996E-003                            
   257.64812680000000       -4.0221600000000003E-002                            
   58.458245900000001      -0.17931140000000001                                 
   16.198367900000001      -0.46376319999999999                                 
   5.0052601000000001      -0.44171420000000000                                 
s   2 1.00
  0.58731860000000002        1.0000000000000000                                 
  0.18764590000000000        0.0000000000000000                                 
s   2 1.00
  0.58731860000000002        0.0000000000000000                                 
  0.18764590000000000        1.0000000000000000                                 
p   3 1.00
   13.571470200000000       -4.0072400000000001E-002                            
   2.9257373000000002      -0.21807050000000000                                 
  0.79927749999999997      -0.51294470000000003                                 
p   1 1.00
  0.21954350000000000        1.0000000000000000                                 
d   1 1.00
   1.0000000000000000        1.0000000000000000                                 

  3 0
s   5 1.00
   1712.8415852999999       -5.3933999999999996E-003                            
   257.64812680000000       -4.0221600000000003E-002                            
   58.458245900000001      -0.17931140000000001                                 
   16.198367900000001      -0.46376319999999999                                 
   5.0052601000000001      -0.44171420000000000                                 
s   2 1.00
  0.58731860000000002        1.0000000000000000                                 
  0.18764590000000000        0.0000000000000000                                 
s   2 1.00
  0.58731860000000002        0.0000000000000000                                 
  0.18764590000000000        1.0000000000000000                                 
p   3 1.00
   13.571470200000000       -4.0072400000000001E-002                            
   2.9257373000000002      -0.21807050000000000                                 
  0.79927749999999997      -0.51294470000000003                                 
p   1 1.00
  0.21954350000000000        1.0000000000000000                                 
d   1 1.00
   1.0000000000000000        1.0000000000000000                                 

  4 0
s   5 1.00
   1712.8415852999999       -5.3933999999999996E-003                            
   257.64812680000000       -4.0221600000000003E-002                            
   58.458245900000001      -0.17931140000000001                                 
   16.198367900000001      -0.46376319999999999                                 
   5.0052601000000001      -0.44171420000000000                                 
s   2 1.00
  0.58731860000000002        1.0000000000000000                                 
  0.18764590000000000        0.0000000000000000                                 
s   2 1.00
  0.58731860000000002        0.0000000000000000                                 
  0.18764590000000000        1.0000000000000000                                 
p   3 1.00
   13.571470200000000       -4.0072400000000001E-002                            
   2.9257373000000002      -0.21807050000000000                                 
  0.79927749999999997      -0.51294470000000003                                 
p   1 1.00
  0.21954350000000000        1.0000000000000000                                 
d   1 1.00
   1.0000000000000000        1.0000000000000000                                 

                                                                                
[MO]
 Sym= A
 Ene=  -15.752733222980066     
 Spin= Alpha
 Occup= 1.0
  1        0.5016207146
  2       -0.0170754634
  3        0.0047413359
  4       -0.0014561206
  5       -0.0000003648
  6       -0.0014394717
  7       -0.0016764448
  8       -0.0000076428
  9       -0.0017012043
 10        0.0001154675
 11       -0.0002129024
 12        0.0000974349
 13        0.0000004665
 14        0.0006373008
 15       -0.0000036971
 16        0.5069070379
 17       -0.0172116048
 18        0.0047359026
 19        0.0016793080
 20       -0.0009711972
 21       -0.0007080057
 22        0.0018935095
 23       -0.0011138632
 24       -0.0008312181
 25        0.0002098567
 26       -0.0000672327
 27       -0.0001426239
 28       -0.0004848009
 29       -0.0003478971
 30        0.0002036107
 31        0.4828499375
 32       -0.0164979288
 33        0.0044177312
 34       -0.0006749429
 35       -0.0009353439
 36        0.0016055528
 37       -0.0007866063
 38       -0.0011030871
 39        0.0018818609
 40       -0.0001372263
 41       -0.0000797809
 42        0.0002170072
 43        0.0002048187
 44       -0.0003598654
 45       -0.0005003298
 46        0.4908813220
 47       -0.0167237372
 48        0.0044757406
 49        0.0004769485
 50        0.0018913578
 51        0.0004674657
 52        0.0005412087
 53        0.0021715447
 54        0.0005262326
 55       -0.0001746130
 56        0.0003571038
 57       -0.0001824908
 58        0.0002779447
 59        0.0000742789
 60        0.0002999472
 Sym= A
 Ene=  -15.752070869827136     
 Spin= Alpha
 Occup= 1.0
  1        0.5894772891
  2       -0.0193746268
  3        0.0148264965
  4       -0.0016661870
  5        0.0000436396
  6       -0.0015363105
  7       -0.0046809384
  8        0.0007393335
  9       -0.0025215191
 10       -0.0003287508
 11        0.0001549282
 12        0.0001738226
 13        0.0002781780
 14       -0.0003176231
 15        0.0000817538
 16       -0.7819156415
 17        0.0256495245
 18       -0.0197481467
 19       -0.0024595460
 20        0.0013992761
 21        0.0009920298
 22       -0.0059718534
 23        0.0029404908
 24        0.0015622030
 25        0.0002860757
 26       -0.0001232901
 27       -0.0001627856
 28       -0.0004077802
 29       -0.0000862851
 30        0.0000468709
 31        0.1337580452
 32       -0.0044094591
 33        0.0033262394
 34       -0.0003163261
 35       -0.0001813806
 36        0.0003906645
 37       -0.0024771098
 38        0.0003698691
 39        0.0005981049
 40       -0.0002198727
 41        0.0001150713
 42        0.0001048013
 43       -0.0000818419
 44        0.0007116038
 45       -0.0002416226
 46        0.0734952345
 47       -0.0024121291
 48        0.0017431381
 49       -0.0000804723
 50        0.0003066807
 51        0.0000612599
 52       -0.0021064067
 53        0.0011395852
 54        0.0000541950
 55        0.0001226791
 56       -0.0002047531
 57        0.0000820740
 58        0.0006682874
 59        0.0003470176
 60       -0.0001100142
 Sym= A
 Ene=  -15.752046500456915     
 Spin= Alpha
 Occup= 1.0
  1        0.4942368099
  2       -0.0162199237
  3        0.0125525211
  4       -0.0013322061
  5       -0.0001174978
  6       -0.0013732836
  7       -0.0027089815
  8       -0.0018066803
  9       -0.0033484610
 10        0.0000779802
 11        0.0000216740
 12       -0.0000996541
 13       -0.0004850892
 14       -0.0004195118
 15       -0.0004064605
 16        0.2960448978
 17       -0.0096922730
 18        0.0074875237
 19        0.0008481715
 20       -0.0006339564
 21       -0.0004570311
 22        0.0008012991
 23       -0.0026361637
 24       -0.0018727551
 25        0.0002759676
 26       -0.0002908094
 27        0.0000148418
 28        0.0002600536
 29        0.0003175075
 30       -0.0004167983
 31       -0.0044760282
 32        0.0001420973
 33        0.0000185915
 34       -0.0000373612
 35       -0.0001080853
 36       -0.0001098699
 37       -0.0006232056
 38       -0.0018040162
 39       -0.0012809416
 40        0.0000264456
 41       -0.0003778214
 42        0.0003513758
 43       -0.0003813111
 44        0.0000729199
 45        0.0001842758
 46       -0.8063640636
 47        0.0264841925
 48       -0.0202525951
 49       -0.0007434475
 50       -0.0029236778
 51       -0.0007840017
 52       -0.0017464955
 53       -0.0063183701
 54       -0.0024029308
 55       -0.0001110647
 56        0.0002116787
 57       -0.0001006140
 58        0.0002116849
 59        0.0001903958
 60        0.0004636763
 Sym= A
 Ene=  -15.752027641120025     
 Spin= Alpha
 Occup= 1.0
  1        0.3727074567
  2       -0.0122178781
  3        0.0095092561
  4       -0.0009439897
  5        0.0000880230
  6       -0.0011131911
  7       -0.0010995454
  8        0.0012360980
  9       -0.0034670997
 10        0.0002293974
 11        0.0001491374
 12       -0.0003785349
 13        0.0001892287
 14       -0.0002090878
 15        0.0004295931
 16        0.1622179998
 17       -0.0053092807
 18        0.0042093457
 19        0.0005181918
 20       -0.0002002181
 21       -0.0003286102
 22        0.0012642734
 23        0.0007714034
 24       -0.0022279136
 25       -0.0000320220
 26        0.0002324420
 27       -0.0002004199
 28       -0.0002408810
 29        0.0006609397
 30        0.0000284931
 31       -0.8551115636
 32        0.0281207396
 33       -0.0215419367
 34        0.0010977563
 35        0.0015757979
 36       -0.0027158257
 37        0.0021895085
 38        0.0036232842
 39       -0.0060417397
 40       -0.0001577404
 41       -0.0000483893
 42        0.0002061297
 43        0.0001584033
 44       -0.0001820194
 45       -0.0004648402
 46        0.2927435921
 47       -0.0096113210
 48        0.0075572291
 49        0.0002850330
 50        0.0010954188
 51        0.0001269561
 52        0.0008855226
 53        0.0028933984
 54       -0.0014772643
 55        0.0001076880
 56       -0.0002535151
 57        0.0001458271
 58       -0.0002837129
 59        0.0002552547
 60        0.0005729348
 Sym= A
 Ene=  -1.6678046333371261     
 Spin= Alpha
 Occup= 1.0
  1        0.1300430596
  2        0.2620562006
  3        0.0703102505
  4        0.0959949738
  5       -0.0000120369
  6        0.0964019040
  7       -0.0268630238
  8       -0.0000013944
  9       -0.0266216823
 10        0.0033951789
 11       -0.0066942838
 12        0.0032991048
 13        0.0000430627
 14        0.0200824962
 15       -0.0000458127
 16        0.1291802303
 17        0.2603998115
 18        0.0692578365
 19       -0.1097294791
 20        0.0635749576
 21        0.0468127363
 22        0.0302548018
 23       -0.0175951752
 24       -0.0127932058
 25        0.0065563778
 26       -0.0022241420
 27       -0.0043322358
 28       -0.0152631019
 29       -0.0112198675
 30        0.0064734998
 31        0.1309057749
 32        0.2637089681
 33        0.0714295776
 34        0.0461235587
 35        0.0646879578
 36       -0.1114860363
 37       -0.0130525266
 38       -0.0180789745
 39        0.0312743934
 40       -0.0043679650
 41       -0.0022388614
 42        0.0066068265
 43        0.0064623196
 44       -0.0110899234
 45       -0.0155275169
 46        0.1300319777
 47        0.2620336463
 48        0.0703310338
 49       -0.0324734765
 50       -0.1282495879
 51       -0.0316442312
 52        0.0088945826
 53        0.0356673131
 54        0.0089415615
 55       -0.0055154852
 56        0.0111566132
 57       -0.0056411280
 58        0.0090146502
 59        0.0022305953
 60        0.0088355224
 Sym= A
 Ene=  -1.0459086347194906     
 Spin= Alpha
 Occup= 1.0
  1        0.1595434091
  2        0.3381994559
  3        0.3078480454
  4       -0.0897692411
  5       -0.0276727062
  6        0.1071464642
  7       -0.0198680903
  8        0.0069706966
  9       -0.0712449845
 10       -0.0105868536
 11       -0.0013587076
 12        0.0119455612
 13       -0.0013625683
 14        0.0032386478
 15       -0.0049108781
 16       -0.1710290559
 17       -0.3624314155
 18       -0.3297608652
 19       -0.0652568580
 20       -0.1008262150
 21       -0.0523112917
 22       -0.0363174954
 23        0.0571877180
 24        0.0364917276
 25        0.0085575621
 26       -0.0076853684
 27       -0.0008721937
 28        0.0084773481
 29        0.0048497299
 30       -0.0105321638
 31        0.0935332571
 32        0.1982875588
 33        0.1809483697
 34       -0.1666360360
 35        0.0140774680
 36       -0.0698534585
 37        0.0311840112
 38       -0.0207573133
 39        0.0474762797
 40       -0.0089606776
 41       -0.0003735667
 42        0.0093342443
 43       -0.0097683195
 44        0.0194639388
 45       -0.0081803856
 46       -0.0834009464
 47       -0.1766957923
 48       -0.1616313536
 49       -0.1758860354
 50        0.0455413678
 51        0.0197483868
 52        0.0381865695
 53       -0.0424668680
 54       -0.0127284777
 55        0.0061402023
 56       -0.0070005314
 57        0.0008603290
 58        0.0249712506
 59        0.0078049223
 60       -0.0061285461
 Sym= A
 Ene=  -1.0424696858001459     
 Spin= Alpha
 Occup= 1.0
  1        0.0439419729
  2        0.0931543035
  3        0.0855510748
  4        0.0022029446
  5        0.1933507825
  6        0.0015711526
  7       -0.0123708938
  8       -0.0508860157
  9       -0.0127225038
 10       -0.0006869751
 11        0.0013863294
 12       -0.0006993544
 13        0.0222448112
 14        0.0025760307
 15        0.0220970762
 16       -0.1211461083
 17       -0.2568281487
 18       -0.2349502724
 19        0.0631695774
 20        0.1402907574
 21       -0.0646992607
 22       -0.0543921368
 23       -0.0148211245
 24        0.0330762638
 25       -0.0078909303
 26        0.0116321767
 27       -0.0037412463
 28       -0.0113649489
 29        0.0132251745
 30        0.0045204368
 31       -0.1205531928
 32       -0.2555492568
 33       -0.2355258158
 34       -0.0645257267
 35        0.1417270898
 36        0.0640959284
 37        0.0329328192
 38       -0.0152395141
 39       -0.0552663859
 40       -0.0038398826
 41        0.0117998430
 42       -0.0079599603
 43        0.0045227009
 44        0.0131642842
 45       -0.0115054963
 46        0.1977589843
 47        0.4192271005
 48        0.3849346478
 49       -0.0703467563
 50        0.0220063688
 51       -0.0686436504
 52        0.0367413548
 53        0.0664711487
 54        0.0359650977
 55        0.0014843613
 56       -0.0027731863
 57        0.0012888251
 58        0.0104553997
 59        0.0071853134
 60        0.0101697719
 Sym= A
 Ene=  -1.0390811813693461     
 Spin= Alpha
 Occup= 1.0
  1        0.1590647836
  2        0.3372229692
  3        0.3122752709
  4        0.1035125636
  5       -0.0256724629
  6       -0.0935084510
  7       -0.0714992857
  8        0.0070751041
  9       -0.0191898219
 10        0.0119490499
 11       -0.0012565987
 12       -0.0106924511
 13       -0.0046373217
 14        0.0027538473
 15       -0.0013215992
 16        0.0946032087
 17        0.2005439852
 18        0.1852311368
 19       -0.0670515434
 20        0.0141008850
 21       -0.1646726490
 22        0.0478231902
 23       -0.0210229229
 24        0.0311021329
 25        0.0092748371
 26       -0.0002570906
 27       -0.0090177465
 28       -0.0081404828
 29        0.0189695901
 30       -0.0095099164
 31       -0.1709196630
 32       -0.3624694447
 33       -0.3358134437
 34       -0.0514279269
 35       -0.1006473139
 36       -0.0695859312
 37        0.0360739263
 38        0.0583102804
 39       -0.0359238995
 40       -0.0009585132
 41       -0.0078369327
 42        0.0087954459
 43       -0.0104885601
 44        0.0045837319
 45        0.0082777477
 46       -0.0813856132
 47       -0.1726335871
 48       -0.1590659551
 49        0.0195971618
 50        0.0439342002
 51       -0.1787533109
 52       -0.0126715726
 53       -0.0412781707
 54        0.0401067540
 55        0.0008283204
 56       -0.0068562774
 57        0.0060279570
 58       -0.0061413290
 59        0.0080046727
 60        0.0252831288
 Sym= A
 Ene= -0.69409508469462733     
 Spin= Alpha
 Occup= 1.0
  1        0.0642097123
  2        0.1287553337
  3        0.1842457871
  4       -0.2063901751
  5       -0.0000039678
  6       -0.2028632202
  7        0.1003733645
  8        0.0000061467
  9        0.0980093426
 10       -0.0054897514
 11        0.0103895772
 12       -0.0048998258
 13        0.0001067658
 14       -0.0311660549
 15       -0.0001086380
 16        0.0641968693
 17        0.1287848871
 18        0.1846430605
 19        0.2339775188
 20       -0.1349603545
 21       -0.0979694969
 22       -0.1130707036
 23        0.0652793182
 24        0.0471115611
 25       -0.0102440094
 26        0.0035315823
 27        0.0067124272
 28        0.0237734965
 29        0.0171664591
 30       -0.0099636307
 31        0.0642076588
 32        0.1286900734
 33        0.1837676251
 34       -0.0997396742
 35       -0.1378552990
 36        0.2366158441
 37        0.0487332895
 38        0.0669817736
 39       -0.1150727745
 40        0.0067948462
 41        0.0033962841
 42       -0.0101911303
 43       -0.0101124009
 44        0.0174631018
 45        0.0240145207
 46        0.0642078667
 47        0.1287478976
 48        0.1842361303
 49        0.0688921040
 50        0.2728075484
 51        0.0675507727
 52       -0.0332101494
 53       -0.1322429814
 54       -0.0329369073
 55        0.0086365424
 56       -0.0173148219
 57        0.0086782795
 58       -0.0139863160
 59       -0.0034652634
 60       -0.0137245406
 Sym= A
 Ene= -0.57809088983799506     
 Spin= Alpha
 Occup= 1.0
  1        0.0721030946
  2        0.1673067659
  3        0.1257255988
  4       -0.0178326509
  5       -0.0997843268
  6       -0.2828073221
  7        0.0415106685
  8        0.0539284638
  9        0.1845022128
 10        0.0093196190
 11        0.0034927825
 12       -0.0128124016
 13       -0.0049318439
 14       -0.0040431737
 15       -0.0120821875
 16       -0.1183415185
 17       -0.2748973302
 18       -0.2060757426
 19       -0.2460944533
 20        0.1725115693
 21        0.1841199535
 22        0.1931582291
 23       -0.1273169697
 24       -0.1247028186
 25       -0.0002222556
 26       -0.0011967016
 27        0.0014189572
 28       -0.0068031497
 29       -0.0089214703
 30        0.0076952800
 31        0.0237569386
 32        0.0550444814
 33        0.0416034793
 34        0.2021529845
 35       -0.1621722956
 36        0.0764388298
 37       -0.1042012908
 38        0.0949123702
 39       -0.0530525525
 40        0.0094339740
 41       -0.0080782716
 42       -0.0013557024
 43        0.0126569867
 44       -0.0165936544
 45        0.0161233199
 46        0.0219646176
 47        0.0508872395
 48        0.0387900886
 49        0.2583147247
 50        0.0005155235
 51        0.0019464681
 52       -0.1417793733
 53       -0.0128287683
 54       -0.0040230451
 55       -0.0092485101
 56        0.0060218775
 57        0.0032266326
 58       -0.0264171399
 59       -0.0014290433
 60       -0.0001721236
 Sym= A
 Ene= -0.57697569603870213     
 Spin= Alpha
 Occup= 1.0
  1        0.0705187812
  2        0.1638221200
  3        0.1221595616
  4       -0.1427752322
  5        0.2150983559
  6       -0.1482076230
  7        0.1087804529
  8       -0.1163762262
  9        0.1114790271
 10        0.0006748982
 11       -0.0013052585
 12        0.0006303604
 13        0.0174381172
 14       -0.0084033897
 15        0.0185309092
 16        0.0260947372
 17        0.0606172750
 18        0.0455312770
 19        0.2008375011
 20        0.1463864380
 21        0.0603440893
 22       -0.1209689633
 23       -0.0707401189
 24       -0.0270897705
 25       -0.0150043680
 26        0.0075263489
 27        0.0074780191
 28       -0.0121088318
 29        0.0006647997
 30        0.0103534734
 31        0.0218923356
 32        0.0508592759
 33        0.0375696906
 34        0.0701844702
 35        0.1668578211
 36        0.2078267807
 37       -0.0332539345
 38       -0.0842647971
 39       -0.1246248017
 40        0.0070734012
 41        0.0088046020
 42       -0.0158780032
 43        0.0108272452
 44       -0.0000443434
 45       -0.0125068651
 46       -0.1184962851
 47       -0.2753093172
 48       -0.2051560142
 49       -0.0458522158
 50       -0.3489209260
 51       -0.0248005760
 52        0.0433701022
 53        0.2591706153
 54        0.0301924701
 55       -0.0037654947
 56        0.0076705781
 57       -0.0039050833
 58        0.0000967770
 59        0.0003759466
 60       -0.0020935510
 Sym= A
 Ene= -0.57579652002855830     
 Spin= Alpha
 Occup= 1.0
  1        0.0704117752
  2        0.1638032136
  3        0.1209617790
  4       -0.2732737871
  5       -0.1122524238
  6       -0.0141591495
  7        0.1798608907
  8        0.0607272213
  9        0.0394100471
 10       -0.0124436515
 11        0.0031814621
 12        0.0092621894
 13       -0.0132136131
 14       -0.0036494762
 15       -0.0052680816
 16        0.0237068389
 17        0.0552202546
 18        0.0405978585
 19        0.0713916441
 20       -0.1627165379
 21        0.1924993655
 22       -0.0512821668
 23        0.0948631596
 24       -0.0989977792
 25       -0.0009867430
 26       -0.0081857417
 27        0.0091724847
 28        0.0161235081
 29       -0.0155296986
 30        0.0124280057
 31       -0.1182256323
 32       -0.2747410058
 33       -0.2033800907
 34        0.1761000048
 35        0.1771863306
 36       -0.2487765798
 37       -0.1211171711
 38       -0.1321891997
 39        0.1959896660
 40        0.0010883948
 41       -0.0009514302
 42       -0.0001369645
 43        0.0078479983
 44       -0.0080991458
 45       -0.0065405221
 46        0.0246202099
 47        0.0573543145
 48        0.0417878588
 49        0.0065946854
 50        0.0088934221
 51        0.2722908884
 52       -0.0075918786
 53       -0.0200532230
 54       -0.1520308110
 55        0.0031925129
 56        0.0058514830
 57       -0.0090439959
 58       -0.0002822330
 59       -0.0024417624
 60       -0.0272451079
 Sym= A
 Ene= -0.54974226389231684     
 Spin= Alpha
 Occup= 1.0
  1        0.0020800882
  2        0.0054643395
  3        0.0012872325
  4       -0.1651764769
  5       -0.2303038100
  6        0.1590772377
  7        0.1109448582
  8        0.1527354946
  9       -0.1040981365
 10       -0.0056055508
 11       -0.0076186327
 12        0.0132241835
 13       -0.0025830215
 14       -0.0078240074
 15       -0.0241541019
 16       -0.0012327659
 17       -0.0027261587
 18       -0.0020212318
 19        0.1523616535
 20        0.2987859979
 21       -0.0360134025
 22       -0.1001341509
 23       -0.1975876834
 24        0.0236988177
 25       -0.0074637791
 26        0.0165184741
 27       -0.0090546950
 28       -0.0032647860
 29        0.0069959570
 30        0.0189089972
 31        0.0011718126
 32        0.0032246973
 33        0.0003327828
 34       -0.3028559436
 35        0.0227651257
 36       -0.1100623246
 37        0.2016991278
 38       -0.0143871220
 39        0.0721399753
 40       -0.0033432493
 41       -0.0058352354
 42        0.0091784847
 43        0.0024417841
 44        0.0290677375
 45       -0.0081526441
 46       -0.0022419590
 47       -0.0051991512
 48       -0.0031197955
 49        0.3236638077
 50       -0.0864072621
 51       -0.0114872522
 52       -0.2139097513
 53        0.0583826942
 54        0.0078921008
 55        0.0010427262
 56        0.0054452664
 57       -0.0064879926
 58       -0.0240627221
 59       -0.0205356804
 60        0.0092824101
 Sym= A
 Ene= -0.54443101707435027     
 Spin= Alpha
 Occup= 1.0
  1        0.0017542908
  2        0.0047127393
  3        0.0007088644
  4       -0.1699436766
  5        0.2359069643
  6        0.1653943946
  7        0.1150387136
  8       -0.1578536661
  9       -0.1093497247
 10       -0.0135416915
 11        0.0076647786
 12        0.0058769129
 13        0.0244839646
 14        0.0075024854
 15        0.0028290461
 16        0.0010036323
 17        0.0028351922
 18        0.0000822115
 19        0.1232863547
 20       -0.0192884062
 21        0.3124916388
 22       -0.0832984532
 23        0.0135178871
 24       -0.2082440403
 25       -0.0100821412
 26        0.0059885222
 27        0.0040936191
 28        0.0081406449
 29       -0.0290522725
 30       -0.0016062916
 31       -0.0011350645
 32       -0.0024893226
 33       -0.0018840779
 34        0.0402429546
 35       -0.2828960847
 36       -0.1523459011
 37       -0.0270954993
 38        0.1896632434
 39        0.1026732016
 40        0.0094745383
 41       -0.0160335478
 42        0.0065590095
 43       -0.0184369472
 44       -0.0067711016
 45        0.0020138185
 46       -0.0018161137
 47       -0.0042071646
 48       -0.0024122330
 49        0.0076040752
 50        0.0706632973
 51       -0.3178497148
 52       -0.0048331552
 53       -0.0463239194
 54        0.2131669959
 55        0.0067172511
 56       -0.0049326321
 57       -0.0017846190
 58       -0.0091908095
 59        0.0203685917
 60        0.0229742563
 Sym= A
 Ene=  0.18400231822450189     
 Spin= Alpha
 Occup= 0.0
  1        0.0039622800
  2        0.0094085981
  3        0.0299630450
  4        0.2331399500
  5       -0.3074648115
  6       -0.2156029286
  7       -0.3425145414
  8        0.4438168986
  9        0.3055035114
 10       -0.0042949927
 11        0.0035154621
 12        0.0007795306
 13        0.0088895349
 14        0.0041960704
 15       -0.0019380580
 16       -0.0033080639
 17       -0.0077735606
 18       -0.0258749794
 19        0.2094481465
 20        0.0677977518
 21        0.3679343479
 22       -0.3084441092
 23       -0.0939688431
 24       -0.5296157533
 25        0.0030300615
 26       -0.0042243381
 27        0.0011942766
 28       -0.0027241761
 29        0.0096744568
 30        0.0011760971
 31       -0.0007100337
 32       -0.0016988388
 33       -0.0051916100
 34       -0.1634180798
 35        0.1292539903
 36        0.0095894967
 37        0.2284365258
 38       -0.1829927415
 39       -0.0166279990
 40        0.0009644702
 41       -0.0005189511
 42       -0.0004455191
 43       -0.0033082083
 44       -0.0031792476
 45        0.0002732119
 46        0.0000670500
 47        0.0001089178
 48        0.0011118538
 49       -0.2516002472
 50        0.1000770650
 51       -0.1503649796
 52        0.3549356110
 53       -0.1409935772
 54        0.2132213398
 55        0.0000849687
 56        0.0008593146
 57       -0.0009442833
 58       -0.0015115285
 59       -0.0074321852
 60        0.0001646478
 Sym= A
 Ene=  0.18603952396628326     
 Spin= Alpha
 Occup= 0.0
  1        0.0007341978
  2        0.0017405706
  3        0.0056038203
  4        0.0424277021
  5        0.0099501299
  6       -0.0391752913
  7       -0.0622599752
  8       -0.0126290424
  9        0.0553478478
 10       -0.0005496429
 11        0.0002108792
 12        0.0003387637
 13        0.0008847627
 14        0.0003351499
 15       -0.0010256328
 16       -0.0005241494
 17       -0.0010997656
 18       -0.0056800561
 19        0.1642988308
 20        0.3524603623
 21       -0.1022405746
 22       -0.2382682823
 23       -0.5059654387
 24        0.1466766278
 25        0.0006369768
 26       -0.0042932374
 27        0.0036562606
 28       -0.0010887427
 29       -0.0027791305
 30       -0.0069548404
 31       -0.0005323617
 32       -0.0011202381
 33       -0.0058154901
 34        0.0953282876
 35       -0.3614985879
 36       -0.1665575063
 37       -0.1381733260
 38        0.5235635539
 39        0.2387837254
 40       -0.0039434735
 41        0.0044991592
 42       -0.0005556857
 43        0.0074411053
 44        0.0029563521
 45        0.0015252376
 46        0.0003221649
 47        0.0004788924
 48        0.0058916042
 49       -0.2984446871
 50       -0.0054431240
 51        0.3115882700
 52        0.4299385465
 53        0.0105092177
 54       -0.4497312305
 55        0.0036986708
 56       -0.0000870809
 57       -0.0036115898
 58       -0.0067102595
 59        0.0004860434
 60        0.0069919611
 Sym= A
 Ene=  0.18787398676116340     
 Spin= Alpha
 Occup= 0.0
  1        0.0038933762
  2        0.0092174454
  3        0.0299572714
  4        0.2213389780
  5        0.3160212828
  6       -0.2040863499
  7       -0.3247368265
  8       -0.4551810418
  9        0.2878460162
 10       -0.0003637888
 11       -0.0038019799
 12        0.0041657687