[Molden Format]
[Title]
 Molden file created by orca_2mkl for BaseName=./N4

[Atoms] AU
N    1   7          0.9826575891         0.9968305351         0.9684846431 
N    2   7         -0.9826575891        -0.9873819044         0.9873819044 
N    3   7         -0.9826575891         0.9779332738        -0.9779332738 
N    4   7          0.9826575891        -0.9873819044        -0.9779332738 
[GTO]
  1 0
s   8 1.0 
    11420.0000000000         0.4212093071
     1712.0000000000         0.7848615221
      389.3000000000         1.3273975977
      110.0000000000         1.9989872282
       35.5700000000         2.4748758656
       12.5400000000         2.1060076679
        4.6440000000         0.8013747684
        0.5118000000        -0.0037531799
s   8 1.0 
    11420.0000000000        -0.1565041181
     1712.0000000000        -0.2934466844
      389.3000000000        -0.4992401207
      110.0000000000        -0.7752671946
       35.5700000000        -1.0288246585
       12.5400000000        -1.0842399649
        4.6440000000        -0.6722979466
        0.5118000000         0.4472128530
s   1 1.0 
        1.2930000000         0.8641895012
s   1 1.0 
        0.1787000000         0.1958860490
p   3 1.0 
       26.6300000000         3.4325416128
        5.9480000000         3.2969151869
        1.7420000000         2.3120245012
p   1 1.0 
        0.5550000000         0.6828201314
p   1 1.0 
        0.1725000000         0.1584624850
d   1 1.0 
        1.6540000000         6.8771297418
d   1 1.0 
        0.4690000000         0.7577440909
f   1 1.0 
        1.0930000000         6.9645882147

  2 0
s   8 1.0 
    11420.0000000000         0.4212093071
     1712.0000000000         0.7848615221
      389.3000000000         1.3273975977
      110.0000000000         1.9989872282
       35.5700000000         2.4748758656
       12.5400000000         2.1060076679
        4.6440000000         0.8013747684
        0.5118000000        -0.0037531799
s   8 1.0 
    11420.0000000000        -0.1565041181
     1712.0000000000        -0.2934466844
      389.3000000000        -0.4992401207
      110.0000000000        -0.7752671946
       35.5700000000        -1.0288246585
       12.5400000000        -1.0842399649
        4.6440000000        -0.6722979466
        0.5118000000         0.4472128530
s   1 1.0 
        1.2930000000         0.8641895012
s   1 1.0 
        0.1787000000         0.1958860490
p   3 1.0 
       26.6300000000         3.4325416128
        5.9480000000         3.2969151869
        1.7420000000         2.3120245012
p   1 1.0 
        0.5550000000         0.6828201314
p   1 1.0 
        0.1725000000         0.1584624850
d   1 1.0 
        1.6540000000         6.8771297418
d   1 1.0 
        0.4690000000         0.7577440909
f   1 1.0 
        1.0930000000         6.9645882147

  3 0
s   8 1.0 
    11420.0000000000         0.4212093071
     1712.0000000000         0.7848615221
      389.3000000000         1.3273975977
      110.0000000000         1.9989872282
       35.5700000000         2.4748758656
       12.5400000000         2.1060076679
        4.6440000000         0.8013747684
        0.5118000000        -0.0037531799
s   8 1.0 
    11420.0000000000        -0.1565041181
     1712.0000000000        -0.2934466844
      389.3000000000        -0.4992401207
      110.0000000000        -0.7752671946
       35.5700000000        -1.0288246585
       12.5400000000        -1.0842399649
        4.6440000000        -0.6722979466
        0.5118000000         0.4472128530
s   1 1.0 
        1.2930000000         0.8641895012
s   1 1.0 
        0.1787000000         0.1958860490
p   3 1.0 
       26.6300000000         3.4325416128
        5.9480000000         3.2969151869
        1.7420000000         2.3120245012
p   1 1.0 
        0.5550000000         0.6828201314
p   1 1.0 
        0.1725000000         0.1584624850
d   1 1.0 
        1.6540000000         6.8771297418
d   1 1.0 
        0.4690000000         0.7577440909
f   1 1.0 
        1.0930000000         6.9645882147

  4 0
s   8 1.0 
    11420.0000000000         0.4212093071
     1712.0000000000         0.7848615221
      389.3000000000         1.3273975977
      110.0000000000         1.9989872282
       35.5700000000         2.4748758656
       12.5400000000         2.1060076679
        4.6440000000         0.8013747684
        0.5118000000        -0.0037531799
s   8 1.0 
    11420.0000000000        -0.1565041181
     1712.0000000000        -0.2934466844
      389.3000000000        -0.4992401207
      110.0000000000        -0.7752671946
       35.5700000000        -1.0288246585
       12.5400000000        -1.0842399649
        4.6440000000        -0.6722979466
        0.5118000000         0.4472128530
s   1 1.0 
        1.2930000000         0.8641895012
s   1 1.0 
        0.1787000000         0.1958860490
p   3 1.0 
       26.6300000000         3.4325416128
        5.9480000000         3.2969151869
        1.7420000000         2.3120245012
p   1 1.0 
        0.5550000000         0.6828201314
p   1 1.0 
        0.1725000000         0.1584624850
d   1 1.0 
        1.6540000000         6.8771297418
d   1 1.0 
        0.4690000000         0.7577440909
f   1 1.0 
        1.0930000000         6.9645882147

[5D]
[9G]
[MO]
 Sym=     1a
 Ene= -1.57508761816111E+01
 Spin= Alpha
 Occup= 2.000000
  1       0.491874631618
  2       0.000594803213
  3       0.020539758637
  4       0.000781826803
  5      -0.001014463679
  6      -0.001018958816
  7      -0.001009614563
  8       0.000229306519
  9       0.000258018297
 10       0.000207683794
 11      -0.000172475996
 12      -0.000168777342
 13      -0.000174615565
 14       0.000003949897
 15       0.000152715395
 16       0.000145944075
 17       0.000002889288
 18       0.000140362496
 19       0.000007844691
 20      -0.000031585040
 21      -0.000043094504
 22       0.000006025794
 23      -0.000051484638
 24      -0.000015482340
 25       0.000007592892
 26       0.000008366629
 27      -0.000001452464
 28       0.000031491646
 29       0.000013324826
 30      -0.000011952201
 31       0.465957978805
 32       0.000639513042
 33       0.019413494350
 34       0.000834485395
 35       0.000947289091
 36       0.000949675101
 37      -0.000961338029
 38      -0.000174112053
 39      -0.000147020530
 40       0.000155758905
 41       0.000189877988
 42       0.000196544293
 43      -0.000195408992
 44       0.000003969579
 45      -0.000141006041
 46      -0.000146502569
 47      -0.000002904243
 48       0.000138175177
 49      -0.000000927116
 50       0.000020417615
 51       0.000006267468
 52      -0.000008290042
 53      -0.000013888221
 54      -0.000011272890
 55      -0.000009987845
 56      -0.000007123692
 57       0.000003938095
 58       0.000027432975
 59      -0.000006426956
 60       0.000009281250
 61       0.511630033253
 62       0.000559664264
 63       0.021400258022
 64       0.000741119108
 65       0.001068298035
 66      -0.001052810144
 67       0.001065425283
 68      -0.000273771089
 69       0.000297220304
 70      -0.000294220943
 71       0.000159018566
 72      -0.000152025808
 73       0.000154320190
 74       0.000000413387
 75       0.000154705316
 76      -0.000145022109
 77       0.000005601233
 78      -0.000149444755
 79      -0.000004086680
 80      -0.000061023060
 81       0.000071827404
 82       0.000004902201
 83       0.000061458224
 84       0.000017824508
 85      -0.000012673541
 86       0.000013452219
 87       0.000000941821
 88       0.000035138376
 89      -0.000013122334
 90      -0.000012570990
 91       0.485752918834
 92       0.000605827407
 93       0.020275071007
 94       0.000795005850
 95      -0.001000626719
 96       0.001003162154
 97       0.000997949763
 98       0.000216915082
 99      -0.000190015291
100      -0.000237614452
101      -0.000176765338
102       0.000183292849
103       0.000171889002
104      -0.000004486033
105      -0.000140304935
106       0.000145787317
107      -0.000002919817
108      -0.000150220698
109      -0.000011833754
110       0.000048969664
111      -0.000034818877
112      -0.000008150252
113       0.000024436136
114       0.000013962134
115       0.000014255853
116      -0.000011396935
117      -0.000003979971
118       0.000031034278
119       0.000007172473
120       0.000009873329
 Sym=     1a
 Ene= -1.57499676557937E+01
 Spin= Alpha
 Occup= 2.000000
  1      -0.284000245096
  2       0.000551974332
  3      -0.012249350670
  4       0.000655104676
  5       0.000634192851
  6       0.000630531164
  7       0.000627616000
  8      -0.001347264523
  9      -0.000027868675
 10      -0.001049781008
 11      -0.000406068481
 12      -0.000033802637
 13      -0.000321376847
 14       0.000037144473
 15       0.000105319613
 16      -0.000126952175
 17       0.000116380441
 18      -0.000075690301
 19       0.000124725146
 20       0.000747944170
 21      -0.000026116855
 22       0.000402944434
 23       0.000145559727
 24       0.000035408810
 25      -0.000145624318
 26       0.000019298305
 27      -0.000202664922
 28      -0.000036237526
 29       0.000067579992
 30       0.000047898390
 31      -0.152664800860
 32       0.000271438144
 33      -0.006574762797
 34       0.000318390076
 35      -0.000328114714
 36      -0.000341249517
 37       0.000344224125
 38      -0.000409791295
 39       0.000900545332
 40      -0.000750710799
 41      -0.000110859658
 42       0.000264221303
 43      -0.000224789880
 44       0.000048445308
 45       0.000105764149
 46      -0.000124269190
 47      -0.000111899987
 48      -0.000077344903
 49       0.000178498407
 50       0.000143752024
 51      -0.000639145632
 52      -0.000398834364
 53      -0.000057106590
 54       0.000021638254
 55      -0.000014394485
 56       0.000158923202
 57       0.000205346791
 58      -0.000016306727
 59       0.000017389390
 60       0.000094498324
 61       0.817089020855
 62      -0.001683277431
 63       0.035326459049
 64      -0.002018179622
 65       0.001843493001
 66      -0.001821682520
 67       0.001835459127
 68      -0.002555507199
 69       0.002384487068
 70      -0.002257505119
 71      -0.000820360614
 72       0.000773309055
 73      -0.000732897917
 74       0.000023320118
 75       0.000096823907
 76      -0.000119881232
 77      -0.000010160322
 78      -0.000069858775
 79       0.000082059015
 80      -0.000859146557
 81       0.000765012828
 82      -0.000048464085
 83       0.000938195120
 84       0.000094028767
 85      -0.000039105516
 86       0.000021387008
 87      -0.000022087507
 88       0.000087184401
 89      -0.000090191085
 90      -0.000102021917
 91      -0.426749709260
 92       0.000812412470
 93      -0.018417397921
 94       0.000963776949
 95       0.000956501434
 96      -0.000957892284
 97      -0.000943038831
 98      -0.001638763001
 99       0.001498968717
100       0.000473850103
101      -0.000504342478
102       0.000463761200
103       0.000166218240
104      -0.000107170938
105       0.000103925088
106      -0.000128748780
107       0.000012321301
108      -0.000075009773
109      -0.000386256064
110      -0.000252816623
111       0.000168923058
112       0.000041215738
113      -0.000865786518
114      -0.000037957423
115       0.000093433367
116      -0.000112310659
117       0.000021966676
118      -0.000045863570
119      -0.000141589335
120      -0.000153138858
 Sym=     1a
 Ene= -1.57499491292682E+01
 Spin= Alpha
 Occup= 2.000000
  1       0.786219379631
  2      -0.001575842242
  3       0.033970874181
  4      -0.001884178719
  5      -0.001757791665
  6      -0.001775765168
  7      -0.001746916863
  8       0.001999853507
  9       0.002528203654
 10       0.002311635126
 11       0.000651704560
 12       0.000804912883
 13       0.000738350734
 14      -0.000006134449
 15       0.000133851537
 16       0.000043859788
 17       0.000044860138
 18       0.000101383678
 19      -0.000006215148
 20      -0.000673036690
 21      -0.000981366847
 22       0.000167319436
 23      -0.000791030132
 24      -0.000094779566
 25       0.000028300937
 26       0.000093657744
 27      -0.000081724999
 28       0.000084340810
 29       0.000088750184
 30      -0.000041086602
 31      -0.224144336390
 32       0.000410841078
 33      -0.009674539177
 34       0.000487049785
 35      -0.000501313999
 36      -0.000507693715
 37       0.000495385631
 38       0.000738183890
 39       0.001257702621
 40       0.000113462547
 41       0.000230819655
 42       0.000377830687
 43       0.000019227979
 44      -0.000110209976
 45       0.000137600632
 46       0.000048085112
 47      -0.000045167352
 48       0.000102228150
 49      -0.000397006425
 50       0.000148413520
 51      -0.000155937782
 52      -0.000161758358
 53       0.000677084716
 54       0.000015612045
 55      -0.000155966797
 56      -0.000089713993
 57       0.000080150091
 58      -0.000024827946
 59       0.000159367360
 60      -0.000112066766
 61      -0.046526540970
 62       0.000099218566
 63      -0.002003204468
 64       0.000119279469
 65      -0.000103313709
 66       0.000095724974
 67      -0.000105952437
 68       0.000388763367
 69       0.000697407253
 70       0.000707195170
 71       0.000112660670
 72       0.000192116538
 73       0.000206118205
 74       0.000084572323
 75       0.000141443522
 76       0.000050439549
 77       0.000093761846
 78       0.000107803752
 79       0.000296934363
 80       0.000534430531
 81       0.000103932876
 82       0.000326392915
 83       0.000299973166
 84      -0.000013564572
 85       0.000172998235
 86      -0.000035829874
 87       0.000164406848
 88      -0.000004598915
 89      -0.000126916381
 90      -0.000037054929
 91      -0.532164976209
 92       0.001046906871
 93      -0.022983195453
 94       0.001249993772
 95       0.001183763893
 96      -0.001197409228
 97      -0.001188609297
 98      -0.000880436725
 99       0.001955594689
100       0.001747894338
101      -0.000301510574
102       0.000608806789
103       0.000550071951
104       0.000031625075
105       0.000136508699
106       0.000050034107
107      -0.000092441575
108       0.000104922195
109       0.000107129847
110      -0.000297212792
111       0.000933038313
112      -0.000331975063
113      -0.000407213386
114      -0.000068487911
115      -0.000008303851
116       0.000145987851
117      -0.000168213509
118      -0.000057497259
119      -0.000058961254
120       0.000033917904
 Sym=     1a
 Ene= -1.57499211579986E+01
 Spin= Alpha
 Occup= 2.000000
  1      -0.117310493142
  2       0.000245124625
  3      -0.005085539677
  4       0.000296584987
  5       0.000273925976
  6       0.000271600543
  7       0.000254772708
  8      -0.000931054601
  9      -0.000565282290
 10       0.000447374177
 11      -0.000284962237
 12      -0.000179404929
 13       0.000115499570
 14      -0.000114255724
 15      -0.000052674746
 16      -0.000117544151
 17       0.000030599695
 18       0.000124583288
 19      -0.000417508550
 20      -0.000006430348
 21      -0.000229938010
 22       0.000109238489
 23       0.000610549968
 24      -0.000003276280
 25       0.000112522489
 26       0.000162864241
 27      -0.000059211515
 28      -0.000007214188
 29      -0.000120585216
 30       0.000149004118
 31       0.814775969465
 32      -0.001576046018
 33       0.035170970585
 34      -0.001878289470
 35       0.001809668529
 36       0.001811205127
 37      -0.001831019350
 38      -0.002422039929
 39      -0.002058210339
 40       0.002486348185
 41      -0.000764713020
 42      -0.000662933164
 43       0.000782571459
 44      -0.000019080452
 45      -0.000052131554
 46      -0.000118123519
 47      -0.000031378363
 48       0.000122236150
 49      -0.000081170213
 50       0.000991326340
 51       0.000770182523
 52      -0.000106526479
 53      -0.000737082378
 54      -0.000096219392
 55      -0.000109162661
 56      -0.000059351890
 57       0.000057824181
 58       0.000089628315
 59      -0.000036463075
 60       0.000065579737
 61      -0.151360488710
 62       0.000335963993
 63      -0.006557729213
 64       0.000408129018
 65      -0.000336073427
 66       0.000340945481
 67      -0.000348404507
 68      -0.000325094604
 69      -0.000654486517
 70       0.001065165840
 71      -0.000070729668
 72      -0.000207945203
 73       0.000328510510
 74       0.000088200053
 75      -0.000050868375
 76      -0.000123338080
 77      -0.000084711619
 78       0.000121541084
 79       0.000315072457
 80       0.000054255625
 81      -0.000640173429
 82      -0.000297434881
 83       0.000193147750
 84      -0.000027952384
 85       0.000054917485
 86      -0.000185005494
 87      -0.000153038188
 88      -0.000016450842
 89      -0.000034618662
 90      -0.000117157698
 91      -0.503218245948
 92       0.001038393907
 93      -0.021755808688
 94       0.001248811999
 95       0.001131226356
 96      -0.001124877098
 97      -0.001128277581
 98      -0.001796853801
 99       0.000819238126
100       0.001832048891
101      -0.000569982600
102       0.000293996617
103       0.000580607479
104       0.000052285741
105      -0.000060008490
106      -0.000113168907
107       0.000083962345
108       0.000120081346
109       0.000180245069
110      -0.000929383437
111       0.000343348504
112       0.000295293700
113      -0.000320712230
114      -0.000064784736
115      -0.000164553416
116       0.000033977316
117       0.000153231740
118      -0.000054936353
119       0.000047750586
120      -0.000034695917
 Sym=     1a
 Ene= -1.65347302803563E+00
 Spin= Alpha
 Occup= 2.000000
  1      -0.008528154266
  2       0.227229796225
  3       0.053806030939
  4       0.061128372112
  5      -0.037001204656
  6      -0.036955469784
  7      -0.037028357096
  8      -0.051349232973
  9      -0.051407413978
 10      -0.051274735552
 11      -0.008872511926
 12      -0.008914657065
 13      -0.008828676440
 14      -0.000010469665
 15       0.004639904154
 16       0.004589960418
 17      -0.000003238545
 18       0.004542515555
 19      -0.000113613999
 20       0.009553847560
 21       0.009541192290
 22      -0.000063430703
 23       0.009530512458
 24       0.001768461674
 25      -0.001079306866
 26      -0.001036335274
 27      -0.000017879135
 28      -0.001136506246
 29      -0.001337920335
 30       0.001311639794
 31      -0.008457422690
 32       0.225726093146
 33       0.053483041415
 34       0.060703155104
 35       0.036425665174
 36       0.036673216192
 37      -0.037164644781
 38       0.050597047010
 39       0.050907568287
 40      -0.051508379978
 41       0.008737438015
 42       0.008788149862
 43      -0.008862968777
 44       0.000070415469
 45      -0.004604633478
 46      -0.004624492331
 47      -0.000042141956
 48       0.004489022729
 49       0.000092523459
 50      -0.009500380806
 51      -0.009543941445
 52      -0.000073354974
 53       0.009349946211
 54       0.001720672272
 55       0.001079886403
 56       0.001076102288
 57       0.000006813218
 58      -0.001136404620
 59       0.001341098312
 60      -0.001292105868
 61      -0.008596525777
 62       0.228736294511
 63       0.054126986690
 64       0.061571292276
 65       0.037564075796
 66      -0.036807231071
 67       0.037307610092
 68       0.052097556463
 69      -0.051166729979
 70       0.051776788105
 71       0.009012612269
 72      -0.008882843793
 73       0.008960227167
 74      -0.000002648644
 75       0.004691185680
 76      -0.004552693735
 77       0.000083788508
 78      -0.004571944609
 79      -0.000019071842
 80       0.009736309836
 81      -0.009539975348
 82       0.000120083691
 83      -0.009583115982
 84      -0.001759872612
 85       0.001076347717
 86      -0.001046939283
 87       0.000060348394
 88      -0.001133032539
 89       0.001337411697
 90       0.001362021955
 91      -0.008525933493
 92       0.227211822839
 93       0.053801030389
 94       0.061132810762
 95      -0.036990731759
 96       0.037238107007
 97       0.036734247385
 98      -0.051342148625
 99       0.051652767271
100       0.051021642040
101      -0.008873643551
102       0.008924827456
103       0.008821766954
104      -0.000074929124
105      -0.004569844885
106       0.004588028524
107      -0.000042795314
108      -0.004608975815
109      -0.000130134691
110      -0.009498913565
111       0.009540443399
112      -0.000074331964
113      -0.009585632322
114      -0.001761322366
115      -0.001042620424
116       0.001004369794
117      -0.000026930925
118      -0.001135390754
119      -0.001367599508
120      -0.001343131208
 Sym=     1a
 Ene= -1.04470637191976E+00
 Spin= Alpha
 Occup= 2.000000
  1      -0.001498881219
  2      -0.306413032338
  3      -0.077824872146
  4      -0.214784439419
  5       0.008997947675
  6      -0.057794194204
  7       0.040885448790
  8       0.022695445023
  9      -0.067911201530
 10       0.066045238129
 11       0.012968522395
 12      -0.010276063702
 13       0.024237533751
 14      -0.005014516228
 15      -0.004953900115
 16       0.001355498762
 17      -0.004498574909
 18       0.004441281035
 19      -0.009988605130
 20      -0.014621159243
 21      -0.001102837626
 22      -0.008950438532
 23       0.005526820591
 24      -0.000061083922
 25       0.002716253242
 26       0.001421635813
 27       0.002153879722
 28      -0.000349683529
 29      -0.001721557592
 30      -0.000107888471
 31       0.001605405889
 32       0.327990031685
 33       0.083312605146
 34       0.230069816446
 35       0.010713346560
 36      -0.054943743288
 37      -0.034476273721
 38       0.025840347992
 39      -0.063422991483
 40      -0.058334044227
 41       0.014304600439
 42      -0.008623198197
 43      -0.022908220587
 44       0.004384049970
 45      -0.004502352869
 46       0.001712659503
 47       0.004388140868
 48      -0.003959088720
 49       0.008845068769
 50      -0.014120502235
 51      -0.000642639591
 52       0.008782949573
 53      -0.004249147279
 54       0.000082695151
 55       0.002497112960
 56       0.001205459652
 57      -0.002121408937
 58       0.000423921902
 59      -0.001518343540
 60      -0.000258128850
 61      -0.000896193631
 62      -0.180706379901
 63      -0.045875769661
 64      -0.126717926587
 65      -0.050101176733
 66      -0.073521636238
 67      -0.017516953227
 68      -0.074331693406
 69      -0.093705784239
 70      -0.029995744597
 71      -0.023387109767
 72      -0.019877295855
 73      -0.011940984088
 74      -0.002197633873
 75      -0.006564154367
 76      -0.005188058092
 77      -0.008236070343
 78      -0.002163248229
 79      -0.004377752496
 80      -0.016541870187
 81      -0.008864045706
 82      -0.016506828996
 83      -0.002283265234
 84       0.000095114173
 85      -0.002137765895
 86      -0.000280707291
 87      -0.003988347659
 88      -0.000301275671
 89       0.002004354562
 90      -0.001311459260
 91       0.000817526888
 92       0.161751971509
 93       0.041047463269
 94       0.113682872166
 95      -0.046945217145
 96      -0.074865081148
 97       0.023373041752
 98      -0.069500945900
 99      -0.096154197415
100       0.037423498956
101      -0.021755354242
102      -0.020882434140
103       0.013477693934
104       0.002903891874
105      -0.006739180585
106      -0.004750031919
107       0.008172277237
108       0.002500472292
109       0.005823692178
110      -0.016798671120
111      -0.008167281296
112       0.016387297590
113       0.003252704547
114       0.000010628452
115      -0.002343352192
116      -0.000005614083
117       0.003930755664
118       0.000199695226
119       0.002114741849
120      -0.001224819922
 Sym=     1a
 Ene= -1.04133075679029E+00
 Spin= Alpha
 Occup= 2.000000
  1       0.000454384290
  2       0.086778227311
  3       0.022041100096
  4       0.061271665164
  5       0.079987782088
  6      -0.038667548166
  7      -0.038289960039
  8       0.105783999849
  9      -0.055590910845
 10      -0.055179570685
 11       0.025389559749
 12      -0.016393163913
 13      -0.016456605066
 14       0.004475728136
 15      -0.003808403134
 16       0.007332741455
 17      -0.007921677313
 18      -0.003854838401
 19       0.009020326668
 20      -0.007122702785
 21       0.017104609171
 22      -0.015944769996
 23      -0.007242771866
 24      -0.000220129542
 25      -0.000564612450
 26      -0.002820099760
 27       0.003828038917
 28       0.000113608889
 29      -0.000658829365
 30      -0.002565561292
 31      -0.001195834931
 32      -0.233603904063
 33      -0.059375091543
 34      -0.164738150817
 35       0.062714061542
 36      -0.055244542354
 37      -0.000753529934
 38       0.077223774747
 39      -0.083273241534
 40       0.007139652150
 41       0.014559825981
 42      -0.027060582694
 43       0.007429273365
 44      -0.000212024733
 45      -0.005776314999
 46       0.005379292898
 47       0.007825401321
 48       0.000508307042
 49      -0.000451040447
 50      -0.009488484363
 51       0.014780740453
 52       0.015750880472
 53      -0.002021149937
 54      -0.000300802310
 55       0.000891061089
 56      -0.001432351875
 57      -0.003812827149
 58      -0.000297879262
 59      -0.001767341689
 60      -0.001424230525
 61      -0.001240607494
 62      -0.232517067202
 63      -0.059019908427
 64      -0.164324983821
 65       0.062936748805
 66      -0.001150287971
 67      -0.056054054260
 68       0.077424224037
 69       0.006565969815
 70      -0.084440285547
 71       0.014535067643
 72       0.007151405791
 73      -0.027477565057
 74      -0.006773510224
 75       0.000413693504
 76       0.005361010446
 77       0.004133858491
 78      -0.005816647081
 79      -0.013656620443
 80      -0.002158551245
 81       0.014769727245
 82       0.008305842958
 83      -0.009543081247
 84      -0.000243257868
 85      -0.002025468238
 86       0.003190554607
 87       0.001980200456
 88      -0.000317415975
 89       0.000418984783
 90       0.002114031416
 91       0.001982689992
 92       0.379347034622
 93       0.096354326240
 94       0.267801330771
 95       0.045651480272
 96       0.016701039492
 97       0.015720833671
 98       0.048845194380
 99       0.036023993635
100       0.034610796165
101       0.003698168781
102       0.018358688694
103       0.017912920926
104       0.002282964132
105       0.002441054101
106       0.003405040331
107      -0.004167774156
108       0.002408404780
109       0.004559814784
110       0.000294213462
111       0.012443016345
112      -0.008413728611
113       0.000186408771
114      -0.000353725330
115      -0.000547039520
116       0.001706583135
117      -0.002023694835
118       0.000499777909
119      -0.000707886781
120       0.000996299953
 Sym=     1a
 Ene= -1.03800420740250E+00
 Spin= Alpha
 Occup= 2.000000
  1       0.001699288814
  2       0.305990246408
  3       0.077726169423
  4       0.217531762274
  5      -0.006275642037
  6      -0.039439049047
  7       0.059145158264
  8      -0.019483961357
  9      -0.064641533364
 10       0.069776170859
 11      -0.012459101589
 12      -0.024152883899
 13       0.010965935664
 14      -0.006249438526
 15      -0.004575270567
 16      -0.001529753150
 17      -0.002230735141
 18       0.004622804038
 19      -0.012729587471
 20      -0.005965229013
 21       0.000745372396
 22      -0.004537478776
 23       0.014334500917
 24       0.000899566570
 25       0.002310747451
 26       0.001713153501
 27       0.001036476836
 28       0.000455998555
 29      -0.002162603258
 30       0.001225429005
 31       0.001002887596
 32       0.182974805021
 33       0.046500044809
 34       0.130013485962
 35       0.049177997817
 36       0.016661586785
 37       0.072641087517
 38       0.073439491161
 39       0.029212366533
 40       0.092423152296
 41       0.023548340144
 42       0.012019191949
 43       0.019808942137
 44      -0.008115666007
 45       0.001923060377
 46       0.005031164746
 47       0.002116173430
 48       0.006350734007
 49      -0.016429130688
 50       0.001776077095
 51       0.008536416565
 52       0.004255898695
 53       0.016374472702
 54       0.000964974521
 55      -0.002422867252
 56      -0.003080734958
 57      -0.001069741275
 58       0.000179832782
 59       0.001588382589
 60      -0.002413768268
 61      -0.001824237735
 62      -0.328254807035
 63      -0.083373649448
 64      -0.233195352022
 65      -0.009690528941
 66       0.034063465358
 67       0.056866805052
 68      -0.024860800867
 69       0.057852081681
 70       0.065753452960
 71      -0.014371366219
 72       0.022753513355
 73       0.009374429434
 74       0.006009124161
 75       0.004050880561
 76      -0.001760731336
 77       0.001597631585
 78       0.004486447667
 79       0.012138422852
 80       0.004469284391
 81       0.000509906789
 82       0.003176427063
 83       0.014142479785
 84       0.000917588712
 85       0.002128371916
 86      -0.001650585229
 87       0.000755452808
 88      -0.000441217288
 89      -0.001994255614
 90      -0.001357171459
 91      -0.000852182186
 92      -0.158072409475
 93      -0.040187842558
 94      -0.112070718756
 95       0.047190357618
 96      -0.022644952745
 97       0.076411118776
 98       0.069746289988
 99      -0.036359987553
100       0.098472940095
101       0.021936835148
102      -0.013225197447
103       0.022051045120
104       0.008468488380
105      -0.002592416483
106       0.004875957587
107      -0.001629367030
108       0.006765663873
109       0.017121622078
110      -0.003581555729
111       0.008529282795
112      -0.003295364235
113       0.016822216744
114       0.000861158284
115      -0.002700036882
116       0.003161875146
117      -0.000795597309
118      -0.000222079376
119       0.001749646369
120       0.002402528432
 Sym=     1a
 Ene= -6.85707214559216E-01
 Spin= Alpha
 Occup= 2.000000
  1       0.002450769309
  2       0.127964662534
  3       0.037899012566
  4       0.164148440695