[Molden Format]
[Atoms] (Angs)
  N      1    7     -0.64251165      0.00000000     -0.63126166
  N      2    7      0.73569921      0.42457822     -0.30804628
  N      3    7     -0.30735811      0.42457822      0.72888739
  N      4    7      0.21417055     -0.84915644      0.21042055
[GTO]
1    0
S    6    1.000000
   1.97308006E+04    2.18879850E-04 
   2.95789587E+03    1.69607088E-03 
   6.73221336E+02    8.79546035E-03 
   1.90682495E+02    3.53593826E-02 
   6.22954419E+01    1.10957892E-01 
   2.26541612E+01    2.49829726E-01 
S    2    1.000000
   8.97914774E+00    4.06238961E-01 
   3.68630024E+00    2.43382172E-01 
S    1    1.000000
   8.46600768E-01    1.00000000E+00 
S    1    1.000000
   3.36471338E-01    1.00000000E+00 
S    1    1.000000
   1.36476537E-01    1.00000000E+00 
P    4    1.000000
   4.92003805E+01    5.55524168E-03 
   1.13467905E+01    3.80523797E-02 
   3.42739724E+00    1.49536710E-01 
   1.17855251E+00    3.49493052E-01 
P    1    1.000000
   4.16422050E-01    1.00000000E+00 
P    1    1.000000
   1.42608260E-01    1.00000000E+00 
D    1    1.000000
   1.65400000E+00    1.00000000E+00 
D    1    1.000000
   4.69000000E-01    1.00000000E+00 
F    1    1.000000
   1.09300000E+00    1.00000000E+00 

2    0
S    6    1.000000
   1.97308006E+04    2.18879850E-04 
   2.95789587E+03    1.69607088E-03 
   6.73221336E+02    8.79546035E-03 
   1.90682495E+02    3.53593826E-02 
   6.22954419E+01    1.10957892E-01 
   2.26541612E+01    2.49829726E-01 
S    2    1.000000
   8.97914774E+00    4.06238961E-01 
   3.68630024E+00    2.43382172E-01 
S    1    1.000000
   8.46600768E-01    1.00000000E+00 
S    1    1.000000
   3.36471338E-01    1.00000000E+00 
S    1    1.000000
   1.36476537E-01    1.00000000E+00 
P    4    1.000000
   4.92003805E+01    5.55524168E-03 
   1.13467905E+01    3.80523797E-02 
   3.42739724E+00    1.49536710E-01 
   1.17855251E+00    3.49493052E-01 
P    1    1.000000
   4.16422050E-01    1.00000000E+00 
P    1    1.000000
   1.42608260E-01    1.00000000E+00 
D    1    1.000000
   1.65400000E+00    1.00000000E+00 
D    1    1.000000
   4.69000000E-01    1.00000000E+00 
F    1    1.000000
   1.09300000E+00    1.00000000E+00 

3    0
S    6    1.000000
   1.97308006E+04    2.18879850E-04 
   2.95789587E+03    1.69607088E-03 
   6.73221336E+02    8.79546035E-03 
   1.90682495E+02    3.53593826E-02 
   6.22954419E+01    1.10957892E-01 
   2.26541612E+01    2.49829726E-01 
S    2    1.000000
   8.97914774E+00    4.06238961E-01 
   3.68630024E+00    2.43382172E-01 
S    1    1.000000
   8.46600768E-01    1.00000000E+00 
S    1    1.000000
   3.36471338E-01    1.00000000E+00 
S    1    1.000000
   1.36476537E-01    1.00000000E+00 
P    4    1.000000
   4.92003805E+01    5.55524168E-03 
   1.13467905E+01    3.80523797E-02 
   3.42739724E+00    1.49536710E-01 
   1.17855251E+00    3.49493052E-01 
P    1    1.000000
   4.16422050E-01    1.00000000E+00 
P    1    1.000000
   1.42608260E-01    1.00000000E+00 
D    1    1.000000
   1.65400000E+00    1.00000000E+00 
D    1    1.000000
   4.69000000E-01    1.00000000E+00 
F    1    1.000000
   1.09300000E+00    1.00000000E+00 

4    0
S    6    1.000000
   1.97308006E+04    2.18879850E-04 
   2.95789587E+03    1.69607088E-03 
   6.73221336E+02    8.79546035E-03 
   1.90682495E+02    3.53593826E-02 
   6.22954419E+01    1.10957892E-01 
   2.26541612E+01    2.49829726E-01 
S    2    1.000000
   8.97914774E+00    4.06238961E-01 
   3.68630024E+00    2.43382172E-01 
S    1    1.000000
   8.46600768E-01    1.00000000E+00 
S    1    1.000000
   3.36471338E-01    1.00000000E+00 
S    1    1.000000
   1.36476537E-01    1.00000000E+00 
P    4    1.000000
   4.92003805E+01    5.55524168E-03 
   1.13467905E+01    3.80523797E-02 
   3.42739724E+00    1.49536710E-01 
   1.17855251E+00    3.49493052E-01 
P    1    1.000000
   4.16422050E-01    1.00000000E+00 
P    1    1.000000
   1.42608260E-01    1.00000000E+00 
D    1    1.000000
   1.65400000E+00    1.00000000E+00 
D    1    1.000000
   4.69000000E-01    1.00000000E+00 
F    1    1.000000
   1.09300000E+00    1.00000000E+00 

[MO]
Sym=X
Ene= -16.148306
Spin=Alpha
Occup=1
     1    1.898197293340e-03
     2    2.658391829031e-03
     3   -2.471351855171e-04
     4    1.557096176631e-03
     5   -1.168697719507e-03
     6    1.310261337211e-04
     7    5.480682944589e-05
     8   -3.570937686964e-06
     9    1.079696342828e-03
    10    3.651527936457e-04
    11    1.702584356405e-04
    12   -4.512752095634e-04
    13   -1.833980276483e-04
    14    1.112921869570e-05
    15   -3.989244605496e-05
    16    2.852884324566e-05
    17    7.288056585683e-06
    18    6.387432094043e-05
    19    4.627113701043e-05
    20   -2.204283204891e-04
    21    1.259999551879e-04
    22    5.275792153293e-05
    23    3.086845796122e-04
    24    2.235431240527e-04
    25   -1.591518148573e-05
    26   -2.011782580344e-05
    27   -8.863508879797e-06
    28    1.312859451817e-05
    29    2.073830802603e-05
    30    1.829375176873e-05
    31    1.035817393396e-05
    32    4.490573016456e-01
    33    6.298519793298e-01
    34    2.201407676956e-02
    35   -1.114783352856e-02
    36    5.063207842848e-03
    37   -9.252225442238e-04
    38   -5.675263046162e-04
    39    3.962928395731e-04
    40    2.473391385147e-03
    41    1.458674659735e-03
    42   -1.053024515906e-03
    43   -9.484754644526e-04
    44   -5.538801854087e-04
    45    4.035773982261e-04
    46   -1.587587610936e-04
    47   -2.356264636788e-04
    48   -1.430883542136e-04
    49    1.901568285406e-04
    50    3.283094580152e-04
    51    3.322418023768e-04
    52    4.889843435593e-04
    53    2.858522159258e-04
    54   -3.780850059047e-04
    55   -6.692429440533e-04
    56    4.067060961587e-05
    57   -1.086642689424e-05
    58   -2.124962844182e-05
    59   -1.599668380588e-05
    60   -4.423609976536e-05
    61    4.486057303659e-06
    62    5.946210999161e-05
    63    1.939594352012e-03
    64    2.715522318036e-03
    65   -2.352604095028e-04
    66    1.568531474473e-03
    67   -1.157177990571e-03
    68    1.164672691663e-04
    69    3.048625772592e-05
    70   -8.633104067895e-05
    71    8.575498374507e-04
    72    6.894412754639e-05
    73   -7.838376264946e-04
    74   -3.913108561164e-04
    75   -1.069866580579e-04
    76    2.724887244186e-04
    77    1.989703574046e-05
    78   -8.063184837050e-05
    79   -1.019885853542e-06
    80    4.089071895643e-05
    81    4.668302875084e-06
    82    9.552578533464e-05
    83   -3.929656892965e-04
    84   -3.138308039976e-05
    85    2.149759685626e-04
    86    1.124491057690e-05
    87    1.672794103978e-06
    88    2.586305457605e-05
    89    7.186731125711e-06
    90   -1.781296958921e-05
    91    4.565359848103e-06
    92    1.611324048454e-05
    93   -1.388338792909e-05
    94    1.894609209603e-03
    95    2.652444804673e-03
    96   -2.422991051533e-04
    97    1.582513533518e-03
    98   -1.129832462646e-03
    99    8.303369175090e-05
   100    1.072020797813e-04
   101   -5.334632440819e-05
   102    4.947088228344e-04
   103    9.850772914707e-04
   104   -4.245365672087e-04
   105   -2.958485028937e-04
   106   -3.409100772149e-04
   107    1.739175170539e-04
   108   -3.048419176557e-05
   109   -2.258260119892e-05
   110   -4.916510621854e-05
   111   -4.600405000474e-05
   112    5.107229600440e-05
   113   -1.324387025078e-04
   114   -1.092686956395e-04
   115   -2.413873711981e-04
   116   -2.312815550621e-04
   117    2.782824923429e-04
   118    4.116881537499e-06
   119    4.751633636215e-06
   120   -3.847118225295e-06
   121    2.181472546836e-05
   122   -7.224469369977e-06
   123   -2.796392546143e-05
   124   -1.556106575512e-05
Sym=X
Ene= -16.095855
Spin=Alpha
Occup=1
     1    3.939062631344e-01
     2    5.525580489696e-01
     3    1.888059106584e-02
     4   -1.202307622120e-02
     5    8.112094551900e-04
     6    2.848221120527e-03
     7    1.080835875213e-04
     8    2.619134828576e-03
     9   -5.047176476317e-03
    10    3.139593891030e-05
    11   -3.842598819052e-03
    12    3.760030505236e-05
    13    1.274726928403e-05
    14    3.487446885401e-06
    15    2.749937112605e-04
    16    3.342426633303e-04
    17   -3.829233756459e-05
    18    5.642380534479e-05
    19   -8.066363675852e-05
    20   -5.225210472281e-05
    21   -1.641784343043e-03
    22    1.635950048559e-04
    23   -1.081597327210e-03
    24   -1.064657551172e-04
    25    1.038448200984e-04
    26   -4.484348631097e-05
    27   -1.179119901776e-05
    28   -1.556134182623e-04
    29    7.989175758033e-05
    30   -9.100364971620e-05
    31   -9.879495920402e-05
    32   -2.911705038472e-03
    33   -4.056007791883e-03
    34   -1.699157288844e-03
    35    5.504209292961e-03
    36    1.700575731777e-04
    37    9.930476388856e-05
    38    8.621002863455e-05
    39   -7.138434967537e-05
    40   -3.700033988635e-03
    41   -1.170891293911e-03
    42    5.361217690445e-04
    43   -3.244338426220e-04
    44   -1.905837867926e-04
    45    1.360860240439e-04
    46   -3.324124024995e-05
    47    5.843119709702e-06
    48    1.647087328584e-05
    49    8.837785094537e-05
    50    4.003609398592e-05
    51   -4.684837569865e-04
    52   -1.955904326389e-04
    53   -2.800163955246e-06
    54    1.035332046070e-03
    55    7.425590722163e-04
    56    2.643726562378e-05
    57    7.632336763895e-05
    58    3.136180501834e-05
    59    2.104877720297e-05
    60   -3.084237833908e-05
    61   -1.245937868581e-04
    62   -1.464979820151e-04
    63    2.025813765347e-01
    64    2.841839811603e-01
    65    9.016850812859e-03
    66   -3.620979320832e-03
    67    4.674516373935e-04
    68    6.850768892591e-04
    69   -8.407718430177e-04
    70   -1.614800391166e-03
    71   -1.952411500953e-03
    72    6.493784578099e-04
    73    6.309825915360e-04
    74    6.209651286199e-05
    75   -8.411686877751e-05
    76   -1.523468640385e-04
    77    1.708748516792e-04
    78    3.546867815866e-05
    79    2.232679728536e-04
    80   -8.746012363901e-05
    81   -2.821968899170e-05
    82    3.313960802244e-04
    83    9.946920451557e-04
    84   -8.439615381526e-05
    85   -8.188874872384e-05
    86    3.310892293710e-04
    87   -1.419319410238e-04
    88   -1.348285002983e-04
    89   -5.413242922527e-05
    90    1.015257749853e-04
    91   -9.666433879016e-05
    92    4.219511395059e-05
    93   -1.920716408039e-05
    94    7.547575582502e-02
    95    1.058927809031e-01
    96    2.405554204547e-03
    97    1.983298722334e-03
    98    1.869600322832e-04
    99   -1.663357179377e-04
   100    5.980427186584e-04
   101   -1.739744362243e-04
   102   -1.743494352739e-03
   103    1.215821480079e-03
   104   -6.739965711408e-04
   105   -7.722089855084e-05
   106    2.493406840793e-04
   107   -6.208977038146e-05
   108   -3.595707095575e-05
   109    7.315701267221e-05
   110   -4.131161164870e-05
   111   -4.153329698655e-05
   112   -1.616775139182e-04
   113   -3.205913320410e-05
   114    5.304961424013e-04
   115   -2.078662319993e-04
   116   -3.831880533615e-05
   117   -8.961495736204e-04
   118    7.259045491389e-06
   119    5.689989718435e-06
   120    3.594371449854e-05
   121   -2.814148787056e-05
   122    1.504705011375e-04
   123    1.489706926306e-04
   124    7.414617032475e-05
Sym=X
Ene= -16.095168
Spin=Alpha
Occup=1
     1   -2.103768165741e-01
     2   -2.950909701184e-01
     3   -1.138170907246e-02
     4    1.113403483614e-02
     5   -3.421575361970e-04
     6   -1.644555661829e-03
     7   -2.806856813779e-05
     8   -1.416399702385e-03
     9    3.709857075123e-03
    10    7.281341756700e-04
    11    5.605267995637e-03
    12    1.819622641324e-04
    13   -1.861849797166e-05
    14    2.306052404520e-04
    15   -7.186568484731e-06
    16   -1.311275581254e-04
    17    8.896598768011e-05
    18   -5.798106400779e-05
    19    5.222458913800e-05
    20    1.297912117602e-03
    21    1.657237478048e-03
    22    5.129082360476e-04
    23    5.562295084861e-04
    24    1.141204940090e-04
    25    1.226533433780e-04
    26    2.331325027315e-04
    27    1.394584689802e-04
    28    7.625752422705e-05
    29    4.049921491290e-05
    30    9.886379757783e-06
    31    4.288397451791e-05
    32   -9.903804439915e-04
    33   -1.381061321237e-03
    34   -5.677816710444e-04
    35    1.904481175581e-03
    36    8.247246341648e-05
    37    4.735641799571e-05
    38    4.769786587757e-05
    39    4.586006798985e-05
    40   -6.916020851363e-04
    41    2.469446963778e-04
    42    2.483892144479e-03
    43   -1.160265431097e-04
    44   -6.912787228464e-05
    45    5.494004997307e-05
    46    6.834766156039e-05
    47   -1.398632361082e-04
    48   -1.478062270489e-05
    49   -1.300975611942e-07
    50   -3.971725754036e-05
    51    5.647289544890e-04
    52   -1.404906475418e-03
    53   -1.421746622720e-04
    54    4.546212330994e-05
    55   -2.415535436095e-04
    56   -1.084681156287e-04
    57   -2.366478445520e-04
    58   -5.592824935264e-05
    59    2.194651144931e-04
    60    7.630043106794e-05
    61   -1.300925390446e-05
    62    8.853487454487e-05
    63    3.954265913037e-01
    64    5.546756919113e-01
    65    2.003581846093e-02
    66   -1.590102326086e-02
    67    7.369371600822e-04
    68    1.542443875567e-03
    69   -1.740686980865e-03
    70   -3.237849396835e-03
    71   -2.356849983767e-03
    72    3.809576864133e-03
    73    7.763469288538e-03
    74   -3.817814160548e-05
    75    1.304359323777e-04
    76    1.738202741489e-04
    77    9.694232736167e-05
    78   -9.370326146047e-05
    79    3.014138023879e-04
    80   -1.385796795107e-04
    81   -1.060430042264e-04
    82   -1.749799668473e-03
    83    9.494143624313e-04
    84   -1.843565986696e-03
    85    1.320401934675e-04
    86    4.846881492162e-04
    87    1.218416435928e-04
    88   -5.107902482152e-05
    89    2.658378858894e-04
    90    2.778245884423e-05
    91   -5.630647877562e-05
    92    5.578815759486e-05
    93   -5.620398655420e-05
    94    3.634894295237e-02
    95    5.099407963240e-02
    96    1.386609602174e-03
    97    1.488123034769e-04
    98    6.626344543521e-05
    99   -5.538054122908e-05
   100    3.348936389224e-04
   101   -2.752297361631e-07
   102    4.810388854333e-05
   103    8.135849030793e-04
   104    2.034365095723e-03
   105   -1.975720718892e-05
   106    7.087204108659e-05
   107   -6.234681181254e-06
   108   -5.704816943714e-05
   109   -6.847929527907e-05
   110    1.216827417999e-04
   111   -8.612065486332e-05
   112   -5.198923868786e-05
   113   -2.989011913396e-04
   114   -6.549508744601e-04
   115    1.113758451528e-03
   116   -5.212076919356e-04
   117   -1.948184092185e-04
   118   -1.816680934373e-04
   119    6.545670418977e-05
   120   -1.220318986190e-04
   121   -1.385322050022e-04
   122   -1.874907484383e-04
   123    8.336306571268e-05
   124   -1.056920610063e-04
Sym=X
Ene= -16.093871
Spin=Alpha
Occup=1
     1   -5.007216046470e-02
     2   -7.022528765672e-02
     3   -3.313344449459e-03
     4    4.764388552709e-03
     5   -5.466131797855e-05
     6   -4.110200469360e-04
     7   -8.956801734212e-05
     8   -3.896150835139e-04
     9    2.324882478636e-03
    10   -1.932622238904e-03
    11    1.927864372039e-03
    12    1.317044740644e-04
    13   -1.761676730905e-05
    14    1.557381321522e-04
    15   -5.457726586420e-05
    16    1.647533784523e-05
    17   -9.804438888217e-05
    18   -1.716335598138e-05
    19   -8.993778177434e-05
    20   -1.017587213024e-04
    21    9.922540095573e-04
    22   -8.825358128688e-04
    23    1.725775872187e-04
    24   -8.246949313175e-04
    25   -1.234940010857e-04
    26    5.777444002177e-05
    27   -1.023696451403e-04
    28    4.650716166061e-05
    29   -2.413955610982e-04
    30   -4.385602185887e-05
    31   -1.202636860739e-04
    32   -1.386895519850e-03
    33   -1.932453228664e-03
    34   -8.238318963900e-04
    35    2.716511509759e-03
    36    1.217012505945e-04
    37    9.041416187814e-05
    38   -2.255087016134e-05
    39   -1.776025071585e-05
    40   -3.680576772619e-04
    41   -2.677398955657e-03
    42    8.395019046693e-04
    43   -1.687818402586e-04
    44   -1.006939545210e-04
    45    7.383633505055e-05
    46   -3.470430310845e-05
    47   -6.000903178302e-06
    48   -7.481243071359e-05
    49   -1.163992058462e-04
    50    6.120907996919e-05
    51   -4.462272417283e-04
    52   -1.915924090882e-04
    53   -7.861866874326e-04
    54   -9.796172699287e-04
    55    7.123489622058e-04
    56   -1.071379339455e-04
    57    3.274646150717e-05
    58    4.047916079354e-05
    59   -1.385110070421e-04
    60    1.434530104656e-04
    61    2.477633290274e-04
    62    6.488401190316e-05
    63   -6.724107654562e-02
    64   -9.430836830793e-02
    65   -4.211666184905e-03
    66    5.544686432425e-03
    67   -1.034979718898e-04
    68   -2.632711578179e-04
    69    2.646754677221e-04
    70    6.490814844807e-04
    71    1.617895488069e-03
    72   -3.143489652022e-03
    73   -1.741574838465e-03
    74    5.746281068714e-05
    75   -1.232438992928e-04
    76   -1.630897545151e-04
    77   -1.099640338844e-04
    78   -1.616976709084e-05
    79    4.390309849565e-06
    80   -5.913214611578e-05
    81   -6.469521133473e-05
    82   -3.500502679224e-04
    83   -5.720243031923e-04
    84    9.428116643072e-04
    85   -7.613812942094e-04
    86   -8.632963606029e-04
    87    1.727319735057e-04
    88    1.165632567853e-06
    89    2.231336630316e-05
    90    1.302605566029e-04
    91    1.621948761087e-04
    92   -1.663755538840e-04
    93    5.115965454168e-05
    94    4.414922245727e-01
    95    6.192912741058e-01
    96    2.210271852342e-02
    97   -1.693264418029e-02
    98    8.170972007052e-04
    99   -8.167554204091e-04
   100    4.202143922775e-03
   101   -1.110420581320e-03
   102    2.261926617646e-03
   103   -8.899184058356e-03
   104    2.141672412696e-03
   105    9.258950982719e-05
   106   -1.829667114205e-04
   107    3.231296807919e-05
   108   -1.730819873562e-04
   109    7.072124815575e-05
   110   -9.621580224094e-05
   111   -2.174143244517e-04
   112   -3.006714926433e-04
   113    1.235274534398e-03
   114   -2.569555108576e-04
   115    1.046504114468e-03
   116    2.034592497333e-03
   117    1.166498698517e-03
   118   -1.555601207460e-04
   119    4.851941939688e-05
   120    1.177221042804e-04
   121   -4.196805831079e-05
   122    7.145698262778e-07
   123   -1.755734025743e-04
   124    1.298577061052e-04
Sym=X
Ene= -1.993529
Spin=Alpha
Occup=1
     1   -4.492458210558e-02
     2   -1.037141020548e-01
     3    1.480469331286e-01
     4    1.754408536290e-01
     5    1.449443431568e-02
     6    5.887086157383e-02
     7   -3.232538534862e-04
     8    6.003084176356e-02
     9    5.132120397682e-02
    10   -5.221942066037e-04
    11    5.252847636232e-02
    12    3.490615460838e-03
    13    1.627343410706e-04
    14    3.089859419946e-03
    15    2.503410161211e-03
    16    6.701981547072e-03
    17   -2.627053047716e-04
    18    3.136317581100e-03
    19   -1.631155900540e-04
    20    5.569760250629e-03
    21    1.597615284035e-02
    22   -6.227878267118e-04
    23    7.752390509784e-03
    24   -1.897393755274e-04
    25   -3.812774228702e-04
    26    1.806651535470e-03
    27    7.030716315611e-04
    28    2.041525155933e-03
    29   -1.135753043525e-03
    30    9.612524222516e-04
    31    1.368235582427e-03
    32   -5.019613464499e-02
    33   -1.165141621033e-01
    34    1.727178349692e-01
    35    2.017370521847e-01
    36    1.046365590638e-02
    37   -6.374061834604e-02
    38   -3.717068621257e-02
    39    2.724503818483e-02
    40   -5.231884323299e-02
    41   -3.058292701193e-02
    42    2.224172676195e-02
    43   -2.498885645844e-03
    44   -1.390526736849e-03
    45    1.036766293882e-03
    46   -2.583080346357e-03
    47   -3.904906405960e-03
    48   -2.257579565677e-03
    49    3.019667510106e-03
    50    5.248287581968e-03
    51   -5.770356717586e-03
    52   -8.577685998244e-03
    53   -4.972242523452e-03
    54    6.700633332297e-03
    55    1.168623012403e-02
    56   -2.052661607375e-03
    57   -1.175953586377e-04
    58    1.566750326679e-03
    59    3.285059625881e-04
    60    1.820770757758e-03
    61   -5.573462757287e-04
    62   -2.588465824092e-03
    63   -4.524249400846e-02
    64   -1.044463994024e-01
    65    1.489070335601e-01
    66    1.770631221314e-01
    67    1.440631422559e-02
    68    2.808984509488e-02
    69   -4.031059187322e-02
    70   -6.887540798901e-02
    71    2.447234403683e-02
    72   -3.557310863401e-02
    73   -6.033737168664e-02
    74    1.815910974826e-03
    75   -1.981090314306e-03
    76   -3.770468304225e-03
    77    3.759571304065e-03
    78   -3.399774497245e-03
    79    5.563180191461e-03
    80   -1.016077648197e-03
    81   -1.923407103368e-03
    82    9.016840443992e-03
    83   -8.509562338132e-03
    84    1.320724455054e-02
    85   -2.270370475186e-03
    86   -4.652470106372e-03
    87   -3.108617473839e-05
    88    1.222069827836e-03
    89   -2.561786525026e-03
    90   -6.966924805137e-04
    91    1.212020931959e-03
    92   -1.112253099566e-03
    93    1.043016406452e-03
    94   -4.477499884583e-02
    95   -1.033565984647e-01
    96    1.474375035088e-01
    97    1.744427483288e-01
    98    1.456614639827e-02
    99   -2.052547768318e-02
   100    7.898270280709e-02
   101   -1.936055379699e-02
   102   -1.816391726401e-02
   103    6.874302108161e-02
   104   -1.684909992911e-02
   105   -8.172514345382e-04
   106    4.467355682566e-03
   107   -1.155040962557e-03
   108   -3.467218602926e-03
   109    7.538672865960e-04
   110   -2.850160816802e-03
   111   -5.332074335164e-03
   112   -3.498802353785e-03
   113   -8.218739545593e-03
   114    1.699086799162e-03
   115   -6.926098994082e-03
   116   -1.274411758527e-02
   117   -8.013840374347e-03
   118    2.155960817933e-03
   119   -6.977511390228e-04
   120   -1.410566230379e-03
   121    5.916687910464e-04
   122   -3.194769323482e-04
   123    1.717139504073e-03
   124   -1.330445720393e-03
Sym=X
Ene= -1.436420
Spin=Alpha
Occup=1
     1    2.874728841640e-02
     2    6.739963790777e-02
     3   -1.015156839740e-01
     4   -1.491082153948e-01
     5   -2.833406705541e-02
     6    4.331125659384e-02
     7    4.396354231011e-02
     8   -7.230643858978e-02
     9    3.015085702948e-02
    10    3.904698428350e-02
    11   -7.166232522603e-02
    12    4.203487865212e-03
    13    4.934705883404e-03
    14   -8.667862481343e-03
    15   -8.388506684862e-03
    16   -1.703081617197e-03
    17    2.331969284524e-03
    18    5.187504371225e-03
    19    5.176673703659e-03
    20   -1.807298714394e-02
    21   -7.533031259738e-03
    22    4.676153121438e-03
    23    8.649944161980e-03
    24    1.081840650355e-02
    25   -2.127096580078e-03
    26   -3.205436816933e-03
    27   -1.555589895215e-04
    28    7.287144869205e-04
    29    1.861627822823e-03
    30    1.634817404069e-03
    31    1.715726441660e-03
    32   -9.068112992097e-02
    33   -2.143406626863e-01
    34    3.442776234987e-01
    35    4.914294067421e-01
    36    9.170885774370e-02
    37    8.397223428693e-02
    38    4.226295124313e-02
    39   -3.020248883250e-02
    40    4.788637699016e-02
    41    2.223865767452e-02
    42   -1.578815222314e-02
    43    6.968774843995e-03
    44    3.350136636483e-03
    45   -2.332532324535e-03
    46   -7.737123750444e-04
    47   -1.425488320230e-03
    48   -9.404718529633e-04
    49    7.024331315066e-04
    50    1.724313790016e-03
    51   -4.084866186614e-03
    52   -6.516506649993e-03
    53   -4.018522166710e-03
    54    4.347027838448e-03
    55    8.581391834181e-03
    56    1.502883374792e-04
    57   -7.990996450216e-04
    58    4.245252997791e-04
    59   -7.610853301801e-04
    60   -5.194508002895e-04
    61   -9.814104787382e-05
    62    7.726601913585e-04
    63    2.608647720848e-02
    64    6.115773822765e-02
    65   -9.205135232708e-02
    66   -1.350403260768e-01
    67   -2.595303915192e-02
    68    6.740407761446e-02
    69    6.976192037669e-02
    70    1.121387117537e-02
    71    5.562732636549e-02
    72    6.633685129983e-02
    73    1.782750748526e-02
    74    7.136204572780e-03
    75    8.184173081677e-03
    76    1.964938037759e-03
    77   -5.057572478177e-04
    78   -7.695497547754e-03
    79   -5.873640548496e-03
    80    6.574904002093e-03
    81    5.809328295555e-04
    82   -2.942145691283e-03
    83   -1.367257704945e-02
    84   -1.461133053956e-02
    85    1.372521572857e-02
    86    2.675220711153e-03
    87    4.011951989226e-04
    88    2.544333874793e-03
    89    1.736603357108e-03
    90   -3.527405975515e-03
    91    1.193531250921e-04
    92    1.366719407288e-03
    93   -9.860042563322e-04
    94    2.334856079855e-02
    95    5.473265967929e-02
    96   -8.246682212208e-02
    97   -1.199749730199e-01
    98   -2.334131401819e-02
    99    9.579501584875e-02
   100   -5.338480903113e-04
   101   -2.064582414430e-02
   102    8.591374706859e-02
   103   -8.468251420047e-03
   104   -1.622212156800e-02
   105    1.082140401258e-02
   106   -8.977494413321e-04
   107   -2.081835989355e-03
   108    1.725065726176e-04
   109   -3.104384345872e-03
   110   -3.526939222211e-03
   111   -2.495849205603e-03
   112    1.048227501119e-02
   113    1.619526970654e-03
   114   -6.741911983504e-03
   115   -5.923095036116e-03
   116   -2.332726306896e-03
   117    2.242400101503e-02
   118    7.901966847639e-04
   119   -6.403031505396e-04
   120    2.159965462922e-04
   121    1.695804419880e-03
   122   -1.747453989627e-03
   123   -3.952576543835e-03
   124   -1.647039468350e-03
Sym=X
Ene= -1.369922
Spin=Alpha
Occup=1
     1    2.634300413752e-02
     2    6.186566485009e-02
     3   -9.302933427755e-02
     4   -1.473811305906e-01
     5   -3.465361503365e-02
     6    3.243727188422e-02
     7   -1.173522005755e-01
     8   -2.946426457327e-02
     9    1.535408853674e-02
    10   -9.808780345518e-02
    11   -3.698790713731e-02
    12    1.827530284589e-03
    13   -1.297411509739e-02
    14   -5.078964509514e-03
    15   -5.130956104368e-03
    16    1.348754885635e-03
    17   -8.654114073843e-03
    18    1.473648084297e-03
    19   -8.001803114592e-03
    20   -1.118423300475e-02
    21   -2.288268157459e-03
    22   -1.570666334078e-02
    23   -6.170397180953e-04
    24   -1.387460930015e-02
    25   -2.159479671839e-03
    26   -7.832384996339e-04
    27   -2.451406097295e-03
    28   -9.083201040491e-05
    29   -3.445259239945e-03
    30   -5.528769542295e-05
    31   -2.339184842016e-03
    32    2.715156072241e-03
    33    6.427674190027e-03
    34   -1.039173421339e-02
    35   -1.521899891234e-02
    36   -3.689956398864e-03
    37    7.759301126721e-02
    38   -1.448477543519e-01
    39   -1.259149614086e-03
    40    6.658651045317e-02
    41   -1.222854361791e-01
    42   -1.300523433696e-03
    43    9.674412786592e-03
    44   -1.755350028235e-02
    45   -2.277221726657e-04
    46   -1.732704917910e-03
    47    1.853283573159e-03
    48   -4.152490571890e-03
    49   -8.861290840986e-03
    50    3.706204401279e-03
    51   -3.466841176747e-03
    52    3.643257531969e-03
    53   -8.151256127519e-03
    54   -1.734987392758e-02
    55    6.870753158231e-03
    56   -5.829494504518e-04
    57    2.975448357517e-04
    58    6.517546253739e-04
    59   -3.013187902776e-03
    60    1.858743829930e-03
    61    5.109755956779e-03
    62    5.819053853817e-04
    63    4.645769178580e-02
    64    1.091032020336e-01
    65   -1.638233173912e-01
    66   -2.607698432287e-01
    67   -6.112119021244e-02
    68    3.555432391691e-02
    69   -8.466972103547e-02
    70    5.914876160990e-02
    71    2.019125233314e-02
    72   -5.586047634420e-02
    73    7.444301953222e-02
    74    2.519470664746e-03
    75   -7.155452613908e-03
    76    1.020149019813e-02
    77   -8.105761265827e-03
    78   -2.210540728318e-03
    79    3.054262233312e-03
    80   -3.520906308751e-03
    81   -5.656274594989e-03
    82   -1.961844495398e-02
    83    5.455554119635e-04
    84   -2.299474994004e-03
    85   -5.752972548190e-03
    86   -7.232429989258e-03
    87    3.172641662391e-03
    88   -4.996753549303e-04
    89    1.757732561692e-03
    90    2.038969868985e-03
    91    1.939039839115e-03
    92   -1.051028178749e-03
    93   -2.893928154247e-05
    94   -7.526722910353e-02
    95   -1.767315298649e-01
    96    2.653071875908e-01
    97    4.212507360778e-01
    98    9.925200889705e-02
    99    3.979760087913e-02
   100   -2.079464209115e-03
   101   -3.052068925373e-02
   102    1.957202297645e-02
   103    4.413288068953e-02
   104   -3.646600485675e-02
   105    2.350391468291e-03
   106    6.768387757608e-03
   107   -5.067456843169e-03
   108    7.738252748362e-04
   109   -2.881590138305e-04
   110   -2.341738123639e-03
   111    1.100939523510e-03
   112    2.798218816584e-03
   113   -6.109114100017e-03
   114    1.428461616846e-03
   115   -1.042577413275e-02
   116   -9.919495484738e-03
   117   -2.646312560476e-03
   118    1.846810087984e-03
   119   -1.062461080729e-03
   120    8.273726799659e-05
   121    7.436876334603e-04
   122   -5.164206618349e-04
   123   -6.491089681331e-04
   124   -6.754704430318e-04
Sym=X
Ene= -1.366925
Spin=Alpha
Occup=1
     1   -6.972537872964e-02
     2   -1.637493755048e-01
     3    2.459889715286e-01
     4    3.922135022852e-01
     5    9.330787408805e-02
     6    4.186182949693e-02
     7   -1.693935669929e-02
     8   -5.186987366356e-02
     9    6.685555090027e-02
    10   -1.502033642211e-02
    11   -9.609474289834e-03
    12    9.617016070968e-03
    13   -1.971042586553e-03