
Running Job 1 of 1 N4.in
qchem N4.in_9708.0 /tmp/qchem9708/ 4
/opt/qchem/exe/qcprog.exe_s N4.in_9708.0 /tmp/qchem9708/
Check license passed

                  Welcome to Q-Chem
     A Quantum Leap Into The Future Of Chemistry


 Q-Chem 4.4, Q-Chem, Inc., Pleasanton, CA (2016)

 Y. Shao,  Z. Gan,  E. Epifanovsky,  A. T. B. Gilbert,  M. Wormit,  
 J. Kussmann,  A. W. Lange,  A. Behn,  J. Deng,  X. Feng,  D. Ghosh,  
 M. Goldey,  P. R. Horn,  L. D. Jacobson,  I. Kaliman,  F.Rob,  
 R. Z. Khaliullin,  T. Kus,  A. Landau,  J. Liu,  E. I. Proynov,  Y. M. Rhee,  
 R. M. Richard,  M. A. Rohrdanz,  R. P. Steele,  E. J. Sundstrom,  
 H. L. Woodcock III,  P. M. Zimmerman,  D. Zuev,  B. Albrecht,  E. Alguire,  
 B. Austin,  S. A. Baeppler,  G. J. O. Beran,  Y. A. Bernard,  E. Berquist,  
 K. Brandhorst,  K. B. Bravaya,  S. T. Brown,  D. Casanova,  C.-M. Chang,  
 Y. Chen,  S. H. Chien,  K. D. Closser,  M. P. Coons,  D. L. Crittenden,  
 S. Dasgupta,  M. Diedenhofen,  R. A. DiStasio Jr.,  H. Do,  A. D. Dutoi,  
 R. G. Edgar,  P.-T. Fang,  S. Fatehi,  Q. Feng,  L. Fusti-Molnar,  
 A. Ghysels,  A. Golubeva-Zadorozhnaya,  J. Gomes,  A. Gunina,  
 M. W. D. Hanson-Heine,  P. H. P. Harbach,  A. W. Hauser,  E. G. Hohenstein,  
 Z. C. Holden,  K. Hui,  T.-C. Jagau,  H. Ji,  B. Kaduk,  K. Khistyaev,  
 Jaehoon Kim,  Jihan Kim,  R. A. King,  P. Klunzinger,  D. Kosenkov,  
 T. Kowalczyk,  C. M. Krauter,  A. Kunitsa,  K. U. Lao,  A. Laurent,  
 K. V. Lawler,  D. Lefrancois,  S. Lehtola,  S. V. Levchenko,  C. Y. Lin,  
 Y.-S. Lin,  F. Liu,  E. Livshits,  R. C. Lochan,  A. Luenser,  P. Manohar,  
 S. F. Manzer,  S.-P. Mao,  Y. Mao,  N. Mardirossian,  A. V. Marenich,  
 L. A. Martinez-Martinez,  S. A. Maurer,  N. J. Mayhall,  J.-M. Mewes,  
 A. F. Morrison,  K. Nanda,  C. M. Oana,  R. Olivares-Amaya,  D. P. O'Neill,  
 J. A. Parkhill,  T. M. Perrine,  R. Peverati,  P. A. Pieniazek,  F. Plasser,  
 A. Prociuk,  D. R. Rehn,  E. Rosta,  N. J. Russ,  N. Sergueev,  
 S. M. Sharada,  S. Sharma,  D. W. Small,  A. Sodt,  T. Stauch,  T. Stein,  
 D. Stuck,  Y.-C. Su,  A. J. W. Thom,  T. Tsuchimochi,  L. Vogt,  O. Vydrov,  
 T. Wang,  M. A. Watson,  J. Wenzel,  A. White,  C. F. Williams,  
 V. Vanovschi,  S. Yeganeh,  S. R. Yost,  Z.-Q. You,  I. Y. Zhang,  X. Zhang,  
 Y. Zhao,  B. R. Brooks,  G. K. L. Chan,  D. M. Chipman,  C. J. Cramer,  
 W. A. Goddard III,  M. S. Gordon,  W. J. Hehre,  A. Klamt,  
 H. F. Schaefer III,  M. W. Schmidt,  C. D. Sherrill,  D. G. Truhlar,  
 A. Warshel,  X. Xu,  A. Aspuru-Guzik,  R. Baer,  A. T. Bell,  N. A. Besley,  
 J.-D. Chai,  A. Dreuw,  B. D. Dunietz,  T. R. Furlani,  S. R. Gwaltney,  
 C.-P. Hsu,  Y. Jung,  J. Kong,  D. S. Lambrecht,  W. Liang,  C. Ochsenfeld,  
 V. A. Rassolov,  L. V. Slipchenko,  J. E. Subotnik,  T. Van Voorhis,  
 J. M. Herbert,  A. I. Krylov,  P. M. W. Gill,  M. Head-Gordon

 Contributors to earlier versions of Q-Chem not listed above: 
 R. D. Adamson,  J. Baker,  E. F. C. Byrd,  A. K. Chakraborty,  C.-L. Cheng,  
 H. Dachsel,  R. J. Doerksen,  G. Hawkins,  A. Heyden,  S. Hirata,  
 G. Kedziora,  F. J. Keil,  C. Kelley,  P. P. Korambath,  W. Kurlancheek,  
 A. M. Lee,  M. S. Lee,  D. Liotard,  I. Lotan,  P. E. Maslen,  N. Nair,  
 D. Neuhauser,  R. Olson,  B. Peters,  J. Ritchie,  N. E. Schultz,  
 N. Shenvi,  A. C. Simmonett,  K. S. Thanthiriwatte,  Q. Wu,  W. Zhang

 Please cite Q-Chem as follows:
 Y. Shao et al., Mol. Phys. 113, 184-215 (2015)
 DOI: 10.1080/00268976.2014.952696

 Q-Chem 4.4.1 for Intel X86 Linux

 Parts of Q-Chem use Armadillo 5.200.1 (Boston Tea Smuggler).
 http://arma.sourceforge.net/

 Q-Chem begins on Wed Dec 24 08:15:42 2008  

Host: 
0

     Scratch files written to /tmp/qchem9708//
 Oct2916 21813_ 22044  22042 5911   
Processing $rem in /opt/qchem/config/preferences.
 MEM_TOTAL  2000 

Checking the input file for inconsistencies... 	...done.

--------------------------------------------------------------
User input:
--------------------------------------------------------------
$comment0
$end

$rem
SYMMETRY              off
BASIS                 def2-TZVP
METHOD                HF
SCF_GUESS             CORE
SCF_CONVERGENCE       8
MOLDEN_FORMAT         true
PRINT_ORBITALS        1000
$end

$molecule
1 2
N       0.5200      0.5300      0.5100
N      -0.5200     -0.5200      0.5200
N      -0.5200      0.5200     -0.5200
N       0.5200     -0.5200     -0.5200
$end
--------------------------------------------------------------
 ----------------------------------------------------------------
             Standard Nuclear Orientation (Angstroms)
    I     Atom           X                Y                Z
 ----------------------------------------------------------------
    1      N      -0.6425116454     0.0000000000    -0.6312616617
    2      N       0.7356992061     0.4245782221    -0.3080462814
    3      N      -0.3073581092     0.4245782221     0.7288873892
    4      N       0.2141705485    -0.8491564442     0.2104205539
 ----------------------------------------------------------------
 Molecular Point Group                 C1    NOp =  1
 Largest Abelian Subgroup              C1    NOp =  1
 Nuclear Repulsion Energy =   105.7779404621 hartrees
 There are       14 alpha and       13 beta electrons
 Requested basis set is def2-TZVP
 There are 44 shells and 124 basis functions

 Total QAlloc Memory Limit   2000 MB
 Mega-Array Size        61 MB
 MEM_STATIC part        62 MB

                       Distance Matrix (Angstroms)
             N (  1)   N (  2)   N (  3)
   N (  2)  1.477904
   N (  3)  1.463762  1.470782
   N (  4)  1.470850  1.470782  1.470782
 
 A cutoff of  1.0D-11 yielded    984 shell pairs
 There are      7944 function pairs (     10770 Cartesian)
 
 -------------------------------------------------------
 OpenMP Integral Computing Module                       
 Release: version 1.0, May 2013, Q-Chem Inc. Pittsburgh 
 -------------------------------------------------------
 Integral Job Info:
 Integral job number is                      11
 Integral operator is                         1
 short-range coefficients                     0
 long-range coefficients              100000000
 Omega coefficients                           0
 if combine SR and LR in K                    0
 Integral screening is                        0
 Integral computing path is                   2
 max size of driver memory is            800000
 size of driver memory is                776718
 size of scratch memory is              4283136
 max col of scratch BK array              10000
 max len of scratch array in speh3          662
 max len of scratch index in speh4           32
 max int batch size is                      520
 min int batch size is                       52
 fixed nKL is                                52
 max L of basis functions is                  3
 order of int derivative is                   0
 number of shells is                         44
 number of basis is                         144
 number of cartesian basis is               144
 number of contracted shell pairs           984
 number of primitive shell pairs           2748
 maxK2 (contraction) of shell pair           36
 max number of K2 of shell pair               1
 max number of CS2 of shell pair             96
 max number of PS2 of shell pair            288
 mem total for path MDJ                   52640
 -------------------------------------------------------
 Smallest overlap matrix eigenvalue = 1.43E-03

 Scale SEOQF with 1.000000e+00/1.000000e+00/1.000000e+00

 Standard Electronic Orientation quadrupole field applied
 Nucleus-field energy     =     0.0000000001 hartrees
 Guess MOs from core Hamiltonian diagonalization
 An unrestricted Hartree-Fock SCF calculation will be
 performed using Pulay DIIS extrapolation
 SCF converges when DIIS error is below 1.0E-08
 ---------------------------------------
  Cycle       Energy         DIIS Error
 ---------------------------------------
    1    -194.4630807309      1.34E-01
    2    -197.4056998500      8.60E-02
    3    -215.3213361868      3.13E-02
    4    -216.3780214534      2.11E-02
    5    -216.9858076920      6.63E-03
    6    -217.0810781462      1.01E-03
    7    -217.0892842099      4.98E-04
    8    -217.0919054378      3.25E-04
    9    -217.0932359934      1.94E-04
   10    -217.0943245720      1.51E-04
   11    -217.0956919357      1.18E-04
   12    -217.0966712470      1.03E-04
   13    -217.0977698474      9.86E-05
   14    -217.0979268925      9.93E-05
   15    -217.0968938556      9.07E-05
   16    -217.0960212564      8.74E-05
   17    -217.0959765844      4.62E-05
   18    -217.0963355463      3.83E-05
   19    -217.0963458172      3.77E-05
   20    -217.0965096604      3.38E-05
   21    -217.0965333901      3.40E-05
   22    -217.0964184115      3.17E-05
   23    -217.0962811832      2.67E-05
   24    -217.0962940850      2.28E-05
   25    -217.0964091125      1.24E-05
   26    -217.0964830603      1.07E-05
   27    -217.0965524250      1.12E-05
   28    -217.0965843741      9.36E-06
   29    -217.0966886000      7.44E-06
   30    -217.0967495989      6.94E-06
   31    -217.0967602446      2.80E-06
   32    -217.0967629616      1.69E-06
   33    -217.0967640093      1.12E-06
   34    -217.0967643625      9.31E-07
   35    -217.0967646829      7.36E-07
   36    -217.0967648744      5.31E-07
   37    -217.0967650666      3.25E-07
   38    -217.0967651271      1.96E-07
   39    -217.0967651517      1.36E-07
   40    -217.0967651555      7.92E-08
   41    -217.0967651624      5.59E-08
   42    -217.0967651685      3.84E-08
   43    -217.0967651702      2.83E-08
   44    -217.0967651708      2.32E-08
   45    -217.0967651710      1.63E-08
   46    -217.0967651710      1.28E-08
   47    -217.0967651711      1.04E-08
   48    -217.0967651713      7.98E-09 Convergence criterion met
 ---------------------------------------
 <S^2> = 0.8320
 SCF time:  CPU 46.44 s  wall 46.51 s
 SCF   energy in the final basis set = -217.0967651713
 Total energy in the final basis set = -217.0967651713
 
 --------------------------------------------------------------
 
                    Orbital Energies (a.u.)
 --------------------------------------------------------------
 
 Alpha MOs
 -- Occupied --
-16.148 -16.096 -16.095 -16.094  -1.994  -1.436  -1.370  -1.367
 -1.051  -0.947  -0.897  -0.896  -0.870  -0.866
 -- Virtual --
 -0.146  -0.143  -0.108  -0.068  -0.055  -0.052   0.103   0.197
  0.225   0.226   0.240   0.241   0.256   0.259   0.260   0.281
  0.379   0.379   0.395   0.483   0.495   0.498   0.736   0.742
  0.751   1.071   1.130   1.135   1.310   1.314   1.344   1.385
  1.388   1.413   1.437   1.482   1.486   1.510   1.512   1.645
  1.646   1.674   1.819   2.007   2.041   2.043   2.145   2.160
  2.162   2.228   2.229   2.657   2.841   2.849   2.870   3.058
  3.152   3.153   3.155   3.424   3.428   3.433   3.560   3.626
  3.629   3.877   3.883   3.890   3.999   4.033   4.042   4.477
  4.481   4.510   4.510   4.538   4.541   4.547   4.554   4.558
  4.609   4.610   4.652   4.696   4.698   4.702   5.055   5.065
  5.069   5.168   5.169   5.387   5.394   5.415   5.523   5.739
  5.759   5.762   5.814   5.818   6.506   6.527   6.527   6.560
  6.565   6.589  32.627  32.849  32.882  32.889
 
 Beta MOs
 -- Occupied --
-16.100 -16.096 -16.095 -16.094  -1.977  -1.357  -1.353  -1.302
 -0.958  -0.885  -0.884  -0.842  -0.836
 -- Virtual --
 -0.428  -0.112  -0.083  -0.080  -0.054  -0.051  -0.044   0.132
  0.234   0.235   0.238   0.239   0.240   0.265   0.266   0.280
  0.297   0.388   0.388   0.394   0.495   0.498   0.501   0.749
  0.755   0.766   1.087   1.148   1.152   1.330   1.334   1.340
  1.409   1.412   1.418   1.489   1.490   1.495   1.507   1.510
  1.660   1.661   1.675   1.858   2.049   2.052   2.054   2.169
  2.171   2.176   2.240   2.241   2.666   2.855   2.862   2.871
  3.069   3.161   3.161   3.165   3.432   3.437   3.441   3.569
  3.634   3.636   3.886   3.893   3.900   4.021   4.036   4.045
  4.503   4.508   4.511   4.548   4.549   4.551   4.554   4.555
  4.560   4.640   4.641   4.657   4.712   4.713   4.717   5.072
  5.082   5.087   5.182   5.183   5.401   5.408   5.418   5.541
  5.760   5.775   5.778   5.823   5.828   6.520   6.537   6.540
  6.565   6.568   6.590  32.641  32.876  32.883  32.890
 --------------------------------------------------------------
 

                        ALPHA MOLECULAR ORBITAL COEFFICIENTS
                         1         2         3         4         5         6
 eigenvalues:        -16.148   -16.096   -16.095   -16.094    -1.994    -1.436
   1  N 1   s        0.00190   0.39391  -0.21038  -0.05007  -0.04492   0.02875
   2  N 1   s        0.00266   0.55256  -0.29509  -0.07023  -0.10371   0.06740
   3  N 1   s       -0.00025   0.01888  -0.01138  -0.00331   0.14805  -0.10152
   4  N 1   s        0.00156  -0.01202   0.01113   0.00476   0.17544  -0.14911
   5  N 1   s       -0.00117   0.00081  -0.00034  -0.00005   0.01449  -0.02833
   6  N 1   px       0.00013   0.00285  -0.00164  -0.00041   0.05887   0.04331
   7  N 1   py       0.00005   0.00011  -0.00003  -0.00009  -0.00032   0.04396
   8  N 1   pz       0.00000   0.00262  -0.00142  -0.00039   0.06003  -0.07231
   9  N 1   px       0.00108  -0.00505   0.00371   0.00232   0.05132   0.03015
  10  N 1   py       0.00037   0.00003   0.00073  -0.00193  -0.00052   0.03905
  11  N 1   pz       0.00017  -0.00384   0.00561   0.00193   0.05253  -0.07166
  12  N 1   px      -0.00045   0.00004   0.00018   0.00013   0.00349   0.00420
  13  N 1   py      -0.00018   0.00001  -0.00002  -0.00002   0.00016   0.00493
  14  N 1   pz       0.00001   0.00000   0.00023   0.00016   0.00309  -0.00867
  15  N 1   d 1      0.00005  -0.00008   0.00005  -0.00009  -0.00016   0.00518
  16  N 1   d 2      0.00001  -0.00004   0.00009  -0.00010  -0.00026   0.00233
  17  N 1   d 3     -0.00004   0.00027  -0.00001  -0.00005   0.00250  -0.00839
  18  N 1   d 4      0.00003   0.00033  -0.00013   0.00002   0.00670  -0.00170
  19  N 1   d 5      0.00006   0.00006  -0.00006  -0.00002   0.00314   0.00519
  20  N 1   d 1      0.00022  -0.00011   0.00011  -0.00082  -0.00019   0.01082
  21  N 1   d 2      0.00005   0.00016   0.00051  -0.00088  -0.00062   0.00468
  22  N 1   d 3     -0.00022  -0.00005   0.00130  -0.00010   0.00557  -0.01807
  23  N 1   d 4      0.00013  -0.00164   0.00166   0.00099   0.01598  -0.00753
  24  N 1   d 5      0.00031  -0.00108   0.00056   0.00017   0.00775   0.00865
  25  N 1   f 1      0.00001  -0.00010   0.00004  -0.00012   0.00137   0.00172
  26  N 1   f 2      0.00002   0.00008   0.00004  -0.00024  -0.00114   0.00186
  27  N 1   f 3     -0.00001  -0.00001   0.00014  -0.00010   0.00070  -0.00016
  28  N 1   f 4     -0.00002   0.00010   0.00012  -0.00012  -0.00038  -0.00213
  29  N 1   f 5     -0.00002  -0.00004   0.00023   0.00006   0.00181  -0.00321
  30  N 1   f 6      0.00001  -0.00016   0.00008   0.00005   0.00204   0.00073
  31  N 1   f 7      0.00002  -0.00009   0.00001  -0.00004   0.00096   0.00163
  32  N 2   s        0.44906  -0.00291  -0.00099  -0.00139  -0.05020  -0.09068
  33  N 2   s        0.62985  -0.00406  -0.00138  -0.00193  -0.11651  -0.21434
  34  N 2   s        0.02201  -0.00170  -0.00057  -0.00082   0.17272   0.34428
  35  N 2   s       -0.01115   0.00550   0.00190   0.00272   0.20174   0.49143
  36  N 2   s        0.00506   0.00017   0.00008   0.00012   0.01046   0.09171
  37  N 2   px      -0.00093   0.00010   0.00005   0.00009  -0.06374   0.08397
  38  N 2   py      -0.00057   0.00009   0.00005  -0.00002  -0.03717   0.04226
  39  N 2   pz       0.00040  -0.00007   0.00005  -0.00002   0.02725  -0.03020
  40  N 2   px       0.00247  -0.00370  -0.00069  -0.00037  -0.05232   0.04789
  41  N 2   py       0.00146  -0.00117   0.00025  -0.00268  -0.03058   0.02224
  42  N 2   pz      -0.00105   0.00054   0.00248   0.00084   0.02224  -0.01579
  43  N 2   px      -0.00095  -0.00032  -0.00012  -0.00017  -0.00250   0.00697
  44  N 2   py      -0.00055  -0.00019  -0.00007  -0.00010  -0.00139   0.00335
  45  N 2   pz       0.00040   0.00014   0.00005   0.00007   0.00104  -0.00233
  46  N 2   d 1      0.00033   0.00004  -0.00004   0.00006   0.00525   0.00172
  47  N 2   d 2     -0.00014   0.00002  -0.00001  -0.00007  -0.00226  -0.00094
  48  N 2   d 3     -0.00016  -0.00003   0.00007  -0.00003  -0.00258  -0.00077
  49  N 2   d 4     -0.00024   0.00001  -0.00014  -0.00001  -0.00390  -0.00143
  50  N 2   d 5      0.00019   0.00009   0.00000  -0.00012   0.00302   0.00070
  51  N 2   d 1     -0.00067   0.00074  -0.00024   0.00071   0.01169   0.00858
  52  N 2   d 2      0.00029   0.00000  -0.00014  -0.00079  -0.00497  -0.00402
  53  N 2   d 3      0.00033  -0.00047   0.00056  -0.00045  -0.00577  -0.00408
  54  N 2   d 4      0.00049  -0.00020  -0.00140  -0.00019  -0.00858  -0.00652
  55  N 2   d 5     -0.00038   0.00104   0.00005  -0.00098   0.00670   0.00435
  56  N 2   f 1      0.00006  -0.00015   0.00009   0.00006  -0.00259   0.00077
  57  N 2   f 2     -0.00004  -0.00003   0.00008   0.00014   0.00182  -0.00052
  58  N 2   f 3     -0.00002   0.00003  -0.00006   0.00004   0.00157   0.00042
  59  N 2   f 4      0.00004   0.00003  -0.00011  -0.00011  -0.00205   0.00015
  60  N 2   f 5     -0.00001   0.00008  -0.00024   0.00003  -0.00012  -0.00080
  61  N 2   f 6     -0.00002   0.00002   0.00022  -0.00014   0.00033  -0.00076
  62  N 2   f 7      0.00000  -0.00012  -0.00001   0.00025  -0.00056  -0.00010
  63  N 3   s        0.00194   0.20258   0.39543  -0.06724  -0.04524   0.02609
  64  N 3   s        0.00272   0.28418   0.55468  -0.09431  -0.10445   0.06116
  65  N 3   s       -0.00024   0.00902   0.02004  -0.00421   0.14891  -0.09205
  66  N 3   s        0.00157  -0.00362  -0.01590   0.00554   0.17706  -0.13504
  67  N 3   s       -0.00116   0.00047   0.00074  -0.00010   0.01441  -0.02595
  68  N 3   px       0.00012   0.00069   0.00154  -0.00026   0.02809   0.06740
  69  N 3   py       0.00003  -0.00084  -0.00174   0.00026  -0.04031   0.06976
  70  N 3   pz      -0.00009  -0.00161  -0.00324   0.00065  -0.06888   0.01121
  71  N 3   px       0.00086  -0.00195  -0.00236   0.00162   0.02447   0.05563
  72  N 3   py       0.00007   0.00065   0.00381  -0.00314  -0.03557   0.06634
  73  N 3   pz      -0.00078   0.00063   0.00776  -0.00174  -0.06034   0.01783
  74  N 3   px      -0.00039   0.00006  -0.00004   0.00006   0.00182   0.00714
  75  N 3   py      -0.00011  -0.00008   0.00013  -0.00012  -0.00198   0.00818
  76  N 3   pz       0.00027  -0.00015   0.00017  -0.00016  -0.00377   0.00196
  77  N 3   d 1      0.00000  -0.00003  -0.00011  -0.00006  -0.00192   0.00058
  78  N 3   d 2      0.00000   0.00022   0.00030   0.00000   0.00556  -0.00587
  79  N 3   d 3      0.00002   0.00017   0.00010  -0.00011   0.00376  -0.00051
  80  N 3   d 4     -0.00008   0.00004  -0.00009  -0.00002  -0.00340  -0.00770
  81  N 3   d 5      0.00004  -0.00009  -0.00014  -0.00006  -0.00102   0.00657
  82  N 3   d 1      0.00001   0.00033   0.00048  -0.00086  -0.00465   0.00268
  83  N 3   d 2     -0.00003  -0.00008  -0.00184   0.00094   0.01321  -0.01461
  84  N 3   d 3      0.00010   0.00033  -0.00175  -0.00035   0.00902  -0.00294
  85  N 3   d 4     -0.00039   0.00099   0.00095  -0.00057  -0.00851  -0.01367
  86  N 3   d 5      0.00021  -0.00008   0.00013  -0.00076  -0.00227   0.01373
  87  N 3   f 1     -0.00001  -0.00002  -0.00006   0.00005   0.00104  -0.00099
  88  N 3   f 2      0.00000  -0.00010  -0.00006   0.00016   0.00121   0.00012
  89  N 3   f 3      0.00001  -0.00005   0.00027   0.00002  -0.00256   0.00174
  90  N 3   f 4      0.00000  -0.00014   0.00012   0.00017  -0.00003   0.00040
  91  N 3   f 5      0.00003  -0.00013  -0.00005   0.00000   0.00122   0.00254
  92  N 3   f 6     -0.00002   0.00010   0.00003   0.00013  -0.00070  -0.00353
  93  N 3   f 7      0.00002   0.00004   0.00006  -0.00017  -0.00111   0.00137
  94  N 4   s        0.00189   0.07548   0.03635   0.44149  -0.04477   0.02335
  95  N 4   s        0.00265   0.10589   0.05099   0.61929  -0.10336   0.05473
  96  N 4   s       -0.00024   0.00241   0.00139   0.02210   0.14744  -0.08247
  97  N 4   s        0.00158   0.00198   0.00015  -0.01693   0.17444  -0.11997
  98  N 4   s       -0.00113   0.00019   0.00007   0.00082   0.01457  -0.02334
  99  N 4   px       0.00008  -0.00017  -0.00006  -0.00082  -0.02053   0.09580
 100  N 4   py       0.00011   0.00060   0.00033   0.00420   0.07898  -0.00053
 101  N 4   pz      -0.00005  -0.00017   0.00000  -0.00111  -0.01936  -0.02065
 102  N 4   px       0.00049  -0.00174   0.00005   0.00226  -0.01816   0.08591
 103  N 4   py       0.00099   0.00122   0.00081  -0.00890   0.06874  -0.00847
 104  N 4   pz      -0.00042  -0.00067   0.00203   0.00214  -0.01685  -0.01622
 105  N 4   px      -0.00030  -0.00008  -0.00002   0.00009  -0.00082   0.01082
 106  N 4   py      -0.00034   0.00025   0.00007  -0.00018   0.00447  -0.00090
 107  N 4   pz       0.00017  -0.00006  -0.00001   0.00003  -0.00116  -0.00208
 108  N 4   d 1      0.00005  -0.00016  -0.00005  -0.00030  -0.00350   0.01048
 109  N 4   d 2     -0.00005  -0.00004   0.00012  -0.00010  -0.00285  -0.00353
 110  N 4   d 3     -0.00003  -0.00004  -0.00006  -0.00017  -0.00347   0.00017
 111  N 4   d 4     -0.00002   0.00007  -0.00007   0.00007   0.00075  -0.00310
 112  N 4   d 5     -0.00005  -0.00004  -0.00009  -0.00022  -0.00533  -0.00250
 113  N 4   d 1      0.00028  -0.00090  -0.00019   0.00117  -0.00801   0.02242
 114  N 4   d 2     -0.00024  -0.00021   0.00111   0.00105  -0.00693  -0.00592
 115  N 4   d 3     -0.00013  -0.00003  -0.00030   0.00124  -0.00822   0.00162
 116  N 4   d 4     -0.00011   0.00053  -0.00065  -0.00026   0.00170  -0.00674
 117  N 4   d 5     -0.00023  -0.00004  -0.00052   0.00203  -0.01274  -0.00233
 118  N 4   f 1     -0.00002   0.00007  -0.00011   0.00013  -0.00133  -0.00165
 119  N 4   f 2     -0.00001   0.00015  -0.00019   0.00000  -0.00032  -0.00175
 120  N 4   f 3      0.00000   0.00004  -0.00012   0.00012  -0.00141   0.00022
 121  N 4   f 4      0.00000   0.00001  -0.00018  -0.00016   0.00216   0.00079
 122  N 4   f 5      0.00000   0.00001   0.00007   0.00005  -0.00070  -0.00064
 123  N 4   f 6      0.00002  -0.00003  -0.00014  -0.00004   0.00059   0.00170
 124  N 4   f 7     -0.00003   0.00015   0.00008  -0.00018   0.00172  -0.00395
                         7         8         9        10        11        12
 eigenvalues:         -1.370    -1.367    -1.051    -0.947    -0.897    -0.896
   1  N 1   s        0.02634  -0.06973  -0.01989   0.02377  -0.03345  -0.02682
   2  N 1   s        0.06187  -0.16375  -0.04726   0.05693  -0.07981  -0.06399
   3  N 1   s       -0.09303   0.24599   0.07721  -0.10463   0.13750   0.11020
   4  N 1   s       -0.14738   0.39221   0.12870  -0.12938   0.19854   0.15922
   5  N 1   s       -0.03465   0.09331   0.07552  -0.07483   0.12216   0.09842
   6  N 1   px       0.03244   0.04186  -0.14366   0.03396  -0.15057  -0.13416
   7  N 1   py      -0.11735  -0.01694  -0.04747  -0.07612  -0.05804  -0.01065
   8  N 1   pz      -0.02946  -0.05187  -0.02454   0.22562  -0.06014  -0.03409
   9  N 1   px       0.01535   0.06686  -0.11885   0.02848  -0.13748  -0.12353
  10  N 1   py      -0.09809  -0.01502  -0.04245  -0.07205  -0.05816  -0.01125
  11  N 1   pz      -0.03699  -0.00961  -0.01232   0.20933  -0.04587  -0.02285
  12  N 1   px       0.00183   0.00962  -0.02246   0.01254  -0.04363  -0.03729
  13  N 1   py      -0.01297  -0.00197  -0.00857  -0.02024  -0.01429  -0.00451
  14  N 1   pz      -0.00508  -0.00050  -0.00095   0.06330  -0.01773  -0.01155
  15  N 1   d 1     -0.00800  -0.00101  -0.00364  -0.00271  -0.00657   0.00021
  16  N 1   d 2     -0.00865  -0.00283  -0.00300  -0.00356  -0.00095  -0.00062
  17  N 1   d 3     -0.00513  -0.00483   0.00470   0.00911   0.00446   0.00281
  18  N 1   d 4      0.00135  -0.00132  -0.00818   0.00673  -0.00299   0.00083
  19  N 1   d 5      0.00147   0.00191  -0.00845  -0.00015  -0.00214  -0.00754
  20  N 1   d 1     -0.01387  -0.00189  -0.00549  -0.00491  -0.01596   0.00145
  21  N 1   d 2     -0.01571  -0.00554  -0.00772  -0.01076  -0.00316  -0.00264
  22  N 1   d 3     -0.01118  -0.00414   0.00959   0.02356   0.01187   0.00710
  23  N 1   d 4     -0.00229   0.01180  -0.01834   0.01761  -0.00880   0.00155
  24  N 1   d 5     -0.00062   0.00984  -0.01641   0.00162  -0.00487  -0.01938
  25  N 1   f 1     -0.00234   0.00086  -0.00064  -0.00041  -0.00358   0.00056
  26  N 1   f 2     -0.00345  -0.00144  -0.00150  -0.00206  -0.00145   0.00155
  27  N 1   f 3     -0.00245  -0.00014  -0.00080  -0.00252   0.00068  -0.00040
  28  N 1   f 4     -0.00216  -0.00187   0.00323   0.00332   0.00136  -0.00068
  29  N 1   f 5     -0.00078  -0.00108  -0.00191   0.00480   0.00042   0.00270
  30  N 1   f 6     -0.00009   0.00094  -0.00489   0.00108   0.00016  -0.00080
  31  N 1   f 7     -0.00006   0.00097  -0.00264  -0.00004   0.00104  -0.00333
  32  N 2   s        0.00272  -0.00234  -0.02075  -0.02006  -0.00009  -0.00028
  33  N 2   s        0.00643  -0.00555  -0.05086  -0.04838  -0.00023  -0.00067
  34  N 2   s       -0.01039   0.00899   0.11620   0.09474   0.00048   0.00136
  35  N 2   s       -0.01522   0.01367   0.10231   0.11179   0.00064   0.00124
  36  N 2   s       -0.00369   0.00322   0.01505   0.01667   0.00001  -0.00030
  37  N 2   px       0.07759  -0.04654   0.27872   0.10936   0.19595   0.00488
  38  N 2   py      -0.14485  -0.02396   0.15896   0.06195  -0.22934   0.19828
  39  N 2   pz      -0.00126  -0.15596  -0.11673  -0.05095   0.15291   0.27422
  40  N 2   px       0.06659  -0.04046   0.27599   0.11281   0.19087   0.00503
  41  N 2   py      -0.12229  -0.02077   0.15743   0.06388  -0.22309   0.19313
  42  N 2   pz      -0.00130  -0.13195  -0.11550  -0.05206   0.14866   0.26661
  43  N 2   px       0.00967  -0.00594   0.08133   0.04659   0.06994   0.00214
  44  N 2   py      -0.01755  -0.00306   0.04644   0.02645  -0.08166   0.07098
  45  N 2   pz      -0.00023  -0.01906  -0.03400  -0.02108   0.05447   0.09770
  46  N 2   d 1      0.00371   0.00297  -0.00155   0.00525   0.00084  -0.00198
  47  N 2   d 2     -0.00415   0.00249   0.00064  -0.00224  -0.00269  -0.00015
  48  N 2   d 3     -0.00173  -0.00510   0.00074  -0.00262   0.00050   0.00283
  49  N 2   d 4      0.00185   0.00808   0.00117  -0.00372  -0.00108  -0.00384
  50  N 2   d 5     -0.00886   0.00268  -0.00082   0.00311  -0.00438   0.00132
  51  N 2   d 1      0.00687   0.00595  -0.01679   0.00693   0.00550  -0.00997
  52  N 2   d 2     -0.00815   0.00462   0.00702  -0.00292  -0.01075  -0.00349
  53  N 2   d 3     -0.00347  -0.00993   0.00820  -0.00353   0.00520   0.01158
  54  N 2   d 4      0.00364   0.01575   0.01234  -0.00471  -0.00368  -0.01480
  55  N 2   d 5     -0.01735   0.00548  -0.00956   0.00408  -0.01779   0.00610
  56  N 2   f 1      0.00058  -0.00207   0.00641  -0.00112   0.00142   0.00211
  57  N 2   f 2      0.00186  -0.00228  -0.00486   0.00099   0.00384   0.00190
  58  N 2   f 3      0.00065   0.00191  -0.00178  -0.00062  -0.00097  -0.00338
  59  N 2   f 4     -0.00058   0.00177   0.00430  -0.00038  -0.00124  -0.00170
  60  N 2   f 5      0.00030   0.00434  -0.00151   0.00118  -0.00318  -0.00521
  61  N 2   f 6     -0.00301  -0.00215  -0.00245   0.00110  -0.00245   0.00397
  62  N 2   f 7      0.00511  -0.00049   0.00037   0.00046   0.00650  -0.00356
  63  N 3   s        0.04646   0.05929  -0.02025   0.02283  -0.00547   0.04196
  64  N 3   s        0.10910   0.13924  -0.04810   0.05470  -0.01305   0.10011
  65  N 3   s       -0.16382  -0.20902   0.07857  -0.10093   0.02229  -0.17236
  66  N 3   s       -0.26077  -0.33375   0.13143  -0.12349   0.03291  -0.24940
  67  N 3   s       -0.06112  -0.07930   0.07697  -0.07110   0.02037  -0.15449
  68  N 3   px       0.03555  -0.07418  -0.11380  -0.05805   0.00004   0.15557
  69  N 3   py      -0.08467   0.02082  -0.00694  -0.18980  -0.03071  -0.02609
  70  N 3   pz       0.05915  -0.04949   0.10687  -0.13402   0.04679  -0.15238
  71  N 3   px       0.02019  -0.07420  -0.09678  -0.05634   0.00072   0.14763
  72  N 3   py      -0.05586   0.03731  -0.01274  -0.17738  -0.03174  -0.01375
  73  N 3   pz       0.07444  -0.00939   0.08411  -0.12282   0.04355  -0.13256
  74  N 3   px       0.00252  -0.01007  -0.01886  -0.01346  -0.00161   0.04395
  75  N 3   py      -0.00716   0.00537  -0.00363  -0.05286  -0.00750  -0.00874
  76  N 3   pz       0.01020  -0.00050   0.01531  -0.03977   0.01188  -0.04412
  77  N 3   d 1     -0.00566   0.00317   0.00353  -0.00040  -0.00258   0.00039
  78  N 3   d 2      0.00305   0.00051  -0.00179   0.01020   0.00354  -0.00090
  79  N 3   d 3     -0.00811   0.00752  -0.00572   0.00279  -0.00404   0.00044
  80  N 3   d 4     -0.00221   0.00403   0.01092   0.00199   0.00247  -0.00847
  81  N 3   d 5     -0.00352   0.00018  -0.00450  -0.00601   0.00322   0.00535
  82  N 3   d 1     -0.00723   0.00930   0.00980   0.00089  -0.00616  -0.00107
  83  N 3   d 2     -0.00230  -0.00842  -0.00381   0.02745   0.00949  -0.00233
  84  N 3   d 3     -0.01962   0.00670  -0.01298   0.00696  -0.01041   0.00215
  85  N 3   d 4      0.00055   0.01346   0.02121   0.00260   0.00654  -0.02122
  86  N 3   d 5     -0.00575   0.00272  -0.00855  -0.01492   0.00877   0.01351
  87  N 3   f 1     -0.00003  -0.00052   0.00149   0.00200  -0.00226   0.00049
  88  N 3   f 2      0.00194  -0.00197  -0.00379  -0.00023   0.00201  -0.00036
  89  N 3   f 3      0.00176  -0.00093   0.00275  -0.00433  -0.00132   0.00017
  90  N 3   f 4      0.00317  -0.00266   0.00129   0.00121   0.00305   0.00170
  91  N 3   f 5     -0.00050  -0.00098  -0.00450  -0.00031  -0.00283   0.00127
  92  N 3   f 6      0.00204   0.00110   0.00151   0.00469  -0.00070  -0.00279
  93  N 3   f 7     -0.00105   0.00119   0.00050  -0.00006   0.00057   0.00095
  94  N 4   s       -0.07527   0.01203  -0.02009   0.02329   0.03950  -0.01468
  95  N 4   s       -0.17673   0.02824  -0.04772   0.05578   0.09424  -0.03502
  96  N 4   s        0.26531  -0.04245   0.07783  -0.10237  -0.16200   0.05997
  97  N 4   s        0.42125  -0.06714   0.13069  -0.12654  -0.23510   0.08788
  98  N 4   s        0.09925  -0.01609   0.07651  -0.07296  -0.14548   0.05474
  99  N 4   px       0.03980  -0.03447  -0.06049  -0.18651   0.06378  -0.02188
 100  N 4   py      -0.00208  -0.03780  -0.12989   0.14107   0.19136  -0.05571
 101  N 4   pz      -0.03052  -0.11949   0.05554   0.00261  -0.04756   0.07061
 102  N 4   px       0.01957  -0.02664  -0.05705  -0.17496   0.06948  -0.02415
 103  N 4   py       0.04413  -0.03890  -0.10259   0.12871   0.16920  -0.04766
 104  N 4   pz      -0.03647  -0.09861   0.04626   0.00358  -0.04272   0.06763
 105  N 4   px       0.00235  -0.00347  -0.01202  -0.05043   0.01683  -0.00669
 106  N 4   py       0.00677  -0.00538  -0.01872   0.04214   0.05487  -0.01645
 107  N 4   pz      -0.00507  -0.01305   0.00890  -0.00045  -0.01393   0.01807
 108  N 4   d 1      0.00280  -0.00164  -0.00424  -0.01079   0.00725  -0.00073
 109  N 4   d 2     -0.00234  -0.01069   0.00671  -0.00042  -0.00295   0.00573
 110  N 4   d 3      0.00077   0.00418   0.00325  -0.00485  -0.00417  -0.00280
 111  N 4   d 4     -0.00029   0.00534   0.00068   0.00170  -0.00168   0.00424
 112  N 4   d 5      0.00110   0.00460   0.01040  -0.00170  -0.00413   0.00094
 113  N 4   d 1     -0.00265  -0.00131  -0.00744  -0.02698   0.01806  -0.00155
 114  N 4   d 2     -0.01043  -0.01811   0.01295  -0.00278  -0.00710   0.01440
 115  N 4   d 3     -0.00611   0.00816   0.00509  -0.01477  -0.00959  -0.00802
 116  N 4   d 4      0.00143   0.01016  -0.00017   0.00296  -0.00296   0.01096
 117  N 4   d 5     -0.00992   0.01026   0.02283  -0.00444  -0.01194   0.00319
 118  N 4   f 1     -0.00068   0.00194   0.00528   0.00235  -0.00028  -0.00052
 119  N 4   f 2     -0.00052   0.00315  -0.00062   0.00109  -0.00152   0.00216
 120  N 4   f 3      0.00008   0.00259   0.00191  -0.00300  -0.00196  -0.00335
 121  N 4   f 4      0.00185   0.00256  -0.00217   0.00091   0.00120  -0.00136
 122  N 4   f 5     -0.00106  -0.00035   0.00016   0.00238  -0.00089  -0.00059
 123  N 4   f 6      0.00074   0.00196  -0.00334   0.00013  -0.00018  -0.00292
 124  N 4   f 7     -0.00065  -0.00030  -0.00051   0.00489  -0.00267  -0.00073
                        13        14        15        16        17        18
 eigenvalues:         -0.870    -0.866    -0.146    -0.143    -0.108    -0.068
   1  N 1   s        0.00588  -0.01449  -0.00385   0.00031  -0.00134  -0.01990
   2  N 1   s        0.01408  -0.03474  -0.00931   0.00074  -0.00321  -0.04729
   3  N 1   s       -0.02623   0.06546   0.01372  -0.00110   0.00433   0.05681
   4  N 1   s       -0.03185   0.07628   0.02785  -0.00245   0.01231   0.23547
   5  N 1   s       -0.01894   0.04369   0.28103  -0.01958   0.05489   0.89085
   6  N 1   px      -0.10282  -0.02297   0.25886   0.00849   0.11720   0.12614
   7  N 1   py       0.21433   0.17332   0.17004  -0.08691  -0.26673   0.03475
   8  N 1   pz       0.16664  -0.13705  -0.16511  -0.01548  -0.10448   0.03084
   9  N 1   px      -0.10196  -0.01876   0.27114   0.00820   0.12280   0.16132
  10  N 1   py       0.20813   0.17109   0.17521  -0.08880  -0.27512   0.03362
  11  N 1   pz       0.16194  -0.13434  -0.16583  -0.01585  -0.10599   0.06827
  12  N 1   px      -0.03571  -0.00904   0.47021  -0.00792   0.20779   0.67897
  13  N 1   py       0.07406   0.06218   0.26512  -0.09889  -0.44674   0.23666
  14  N 1   pz       0.05881  -0.05159  -0.17944  -0.01290  -0.16090   0.04186
  15  N 1   d 1      0.00446   0.00919  -0.00296  -0.00091   0.00212  -0.00913
  16  N 1   d 2      0.01156   0.00154  -0.00014   0.00027   0.00547  -0.00018
  17  N 1   d 3      0.00930  -0.00004   0.00236   0.00025   0.00441   0.00952
  18  N 1   d 4     -0.00080  -0.00435   0.00002  -0.00105  -0.00214   0.00212
  19  N 1   d 5     -0.00190   0.00443  -0.00277   0.00196   0.00164  -0.00866
  20  N 1   d 1      0.01264   0.02451  -0.00460  -0.00456  -0.00432  -0.00337
  21  N 1   d 2      0.02924   0.00654   0.00810   0.00196   0.00690   0.00816
  22  N 1   d 3      0.02515  -0.00350  -0.00393   0.00381   0.00728  -0.00007
  23  N 1   d 4     -0.00117  -0.01241   0.00982  -0.00578  -0.00544   0.02779
  24  N 1   d 5     -0.00601   0.01096   0.00273   0.00778   0.01078   0.01267
  25  N 1   f 1      0.00020   0.00304  -0.00098  -0.00067  -0.00041  -0.00237
  26  N 1   f 2      0.00374   0.00237  -0.00076  -0.00067   0.00026  -0.00175
  27  N 1   f 3      0.00467  -0.00124   0.00218  -0.00015   0.00084   0.00157
  28  N 1   f 4      0.00448   0.00214  -0.00085   0.00150   0.00056   0.00090
  29  N 1   f 5      0.00108  -0.00110   0.00114  -0.00212   0.00048   0.00436
  30  N 1   f 6     -0.00019   0.00121   0.00073   0.00286  -0.00112   0.00056
  31  N 1   f 7      0.00025   0.00252  -0.00078  -0.00153   0.00241  -0.00147
  32  N 2   s        0.00024  -0.00004   0.00151  -0.00046   0.00008   0.05070
  33  N 2   s        0.00057  -0.00010   0.00362  -0.00110   0.00019   0.12137
  34  N 2   s       -0.00111   0.00011  -0.00519   0.00140  -0.00027  -0.16118
  35  N 2   s       -0.00117   0.00042  -0.01210   0.00347  -0.00066  -0.46980
  36  N 2   s       -0.00006   0.00055  -0.04620   0.01580  -0.00257  -2.33599
  37  N 2   px       0.06472  -0.04888   0.13850  -0.12029   0.00097   0.19881
  38  N 2   py      -0.11251  -0.01845  -0.02437   0.26360   0.00349   0.11861
  39  N 2   pz       0.00591  -0.14103   0.26681   0.08659   0.00595  -0.09119
  40  N 2   px       0.06393  -0.04850   0.14471  -0.12514   0.00102   0.28562
  41  N 2   py      -0.11122  -0.01828  -0.02398   0.27173   0.00355   0.17035
  42  N 2   pz       0.00589  -0.13931   0.27416   0.08981   0.00582  -0.13029
  43  N 2   px       0.02634  -0.02017   0.25175  -0.21323   0.00501   1.13810
  44  N 2   py      -0.04622  -0.00777  -0.03555   0.45961   0.01164   0.63578
  45  N 2   pz       0.00231  -0.05790   0.46162   0.15396   0.02327  -0.46482
  46  N 2   d 1     -0.00442   0.00016   0.00375   0.00679   0.00028   0.00687
  47  N 2   d 2     -0.00337  -0.00541   0.00502  -0.00725  -0.00019  -0.00253
  48  N 2   d 3     -0.00522   0.00284  -0.00684  -0.00668  -0.00055  -0.00336
  49  N 2   d 4     -0.00060   0.00363   0.01421   0.00748   0.00093  -0.00469
  50  N 2   d 5     -0.00037   0.00286   0.01014  -0.01358   0.00011   0.00477
  51  N 2   d 1     -0.01016   0.00164   0.00790   0.01187   0.00012  -0.03187
  52  N 2   d 2     -0.01071  -0.01297   0.00803  -0.01887  -0.00084   0.01339
  53  N 2   d 3     -0.01428   0.00505  -0.01096  -0.01720  -0.00076   0.01618
  54  N 2   d 4     -0.00111   0.01316   0.03350   0.01590   0.00146   0.02335
  55  N 2   d 5     -0.00439   0.00893   0.02305  -0.02830   0.00022  -0.01843
  56  N 2   f 1      0.00285  -0.00157  -0.00075   0.00160  -0.00117   0.00453
  57  N 2   f 2      0.00135   0.00110   0.00129   0.00082  -0.00275  -0.00368
  58  N 2   f 3      0.00018  -0.00208  -0.00201  -0.00060  -0.00208  -0.00156
  59  N 2   f 4     -0.00260   0.00139   0.00096  -0.00142  -0.00282   0.00343
  60  N 2   f 5      0.00216   0.00094  -0.00125   0.00122  -0.00014  -0.00068
  61  N 2   f 6     -0.00123  -0.00318  -0.00152  -0.00036  -0.00094  -0.00157
  62  N 2   f 7     -0.00045  -0.00187  -0.00050  -0.00210   0.00056   0.00020
  63  N 3   s        0.01213   0.01265   0.00154   0.00266   0.00134  -0.01599
  64  N 3   s        0.02905   0.03032   0.00375   0.00645   0.00321  -0.03796
  65  N 3   s       -0.05363  -0.05696  -0.00590  -0.00990  -0.00433   0.04459
  66  N 3   s       -0.06624  -0.06693  -0.00781  -0.01700  -0.01204   0.19828
  67  N 3   s       -0.03874  -0.03782  -0.14372  -0.21569  -0.05832   0.73159
  68  N 3   px      -0.17732   0.04444  -0.19189  -0.19426  -0.18545   0.11031
  69  N 3   py       0.03056  -0.23871  -0.07265  -0.19706   0.17975   0.01436
  70  N 3   pz      -0.19712   0.03949   0.00338   0.09362  -0.16907  -0.07238
  71  N 3   px      -0.17524   0.04065  -0.19827  -0.20217  -0.19245   0.12518
  72  N 3   py       0.02981  -0.23425  -0.07422  -0.20122   0.18677  -0.00633
  73  N 3   pz      -0.18950   0.04032   0.00576   0.09928  -0.17228  -0.10758
  74  N 3   px      -0.06239   0.01545  -0.28368  -0.34058  -0.31587   0.59297
  75  N 3   py       0.00888  -0.08685  -0.10008  -0.25210   0.31232   0.14518
  76  N 3   pz      -0.06965   0.01206   0.06987   0.19656  -0.26800  -0.34937
  77  N 3   d 1      0.00144  -0.00914   0.00084   0.00082  -0.00273  -0.00390
  78  N 3   d 2      0.00086   0.00185  -0.00118  -0.00016  -0.00081   0.00592
  79  N 3   d 3      0.01097  -0.00519   0.00103  -0.00026  -0.00453   0.00192
  80  N 3   d 4      0.00830   0.00063  -0.00199  -0.00262  -0.00350   0.01308
  81  N 3   d 5      0.00228  -0.00691  -0.00033   0.00302  -0.00455  -0.00837
  82  N 3   d 1      0.00500  -0.02307   0.00654   0.00844   0.00026  -0.01641
  83  N 3   d 2      0.00374   0.00841  -0.00393   0.00341  -0.00778   0.01026
  84  N 3   d 3      0.02929  -0.01416  -0.00140  -0.00731  -0.00107   0.01542
  85  N 3   d 4      0.02152   0.00206  -0.00096   0.00469  -0.00566  -0.01216
  86  N 3   d 5      0.00385  -0.01906  -0.00809   0.00414  -0.01333   0.00227
  87  N 3   f 1     -0.00191   0.00070   0.00223  -0.00124  -0.00022   0.00017
  88  N 3   f 2     -0.00184   0.00287   0.00071  -0.00228  -0.00124   0.00146
  89  N 3   f 3     -0.00257   0.00313   0.00077  -0.00013   0.00084  -0.00241
  90  N 3   f 4     -0.00459   0.00094  -0.00073   0.00206   0.00036  -0.00174
  91  N 3   f 5     -0.00333  -0.00111   0.00000   0.00091   0.00144  -0.00248
  92  N 3   f 6     -0.00076   0.00229   0.00032  -0.00004   0.00076   0.00327
  93  N 3   f 7      0.00046  -0.00364   0.00278   0.00041  -0.00199  -0.00264
  94  N 4   s       -0.01848   0.00170   0.00092  -0.00251  -0.00007  -0.01355
  95  N 4   s       -0.04429   0.00409   0.00225  -0.00610  -0.00017  -0.03213
  96  N 4   s        0.08217  -0.00790  -0.00369   0.00958   0.00019   0.03689
  97  N 4   s        0.09969  -0.00866  -0.00337   0.01409   0.00059   0.17496
  98  N 4   s        0.05746  -0.00482  -0.09692   0.22233   0.00578   0.61788
  99  N 4   px       0.19249   0.03772  -0.14832   0.27061   0.07330   0.08186
 100  N 4   py      -0.08419   0.09398  -0.06946   0.08705   0.09181   0.09197
 101  N 4   pz       0.02908   0.27793  -0.03187  -0.13856   0.29006  -0.04022
 102  N 4   px       0.18995   0.03627  -0.15235   0.27834   0.07545   0.07266
 103  N 4   py      -0.07811   0.09153  -0.07236   0.09297   0.09483   0.12770
 104  N 4   pz       0.02660   0.27148  -0.03183  -0.14319   0.29865  -0.04915
 105  N 4   px       0.06992   0.01301  -0.20057   0.39800   0.12674   0.47342
 106  N 4   py      -0.03168   0.03361  -0.12801   0.21841   0.16092   0.44051
 107  N 4   pz       0.01004   0.09819  -0.00397  -0.21478   0.50133  -0.21645
 108  N 4   d 1      0.00666  -0.00082   0.00022  -0.00316   0.00061  -0.01422
 109  N 4   d 2     -0.00142   0.01207  -0.00150   0.00157  -0.00521   0.00635
 110  N 4   d 3     -0.00408  -0.00225   0.00073   0.00166   0.00022   0.00341
 111  N 4   d 4     -0.00597  -0.00804  -0.00170   0.00065   0.00622   0.00682
 112  N 4   d 5      0.00183  -0.00611  -0.00043   0.00078   0.00317   0.00242
 113  N 4   d 1      0.02088  -0.00203  -0.00396  -0.00083   0.00490  -0.00254
 114  N 4   d 2     -0.00309   0.03251  -0.00175  -0.00215  -0.00038  -0.00691
 115  N 4   d 3     -0.00822  -0.00739   0.00369   0.00632  -0.00689  -0.00124
 116  N 4   d 4     -0.01519  -0.02017  -0.00907   0.00019   0.01408   0.00641
 117  N 4   d 5      0.00419  -0.01590   0.00323  -0.01075   0.00322  -0.02278
 118  N 4   f 1      0.00042  -0.00249   0.00183  -0.00107   0.00096  -0.00043
 119  N 4   f 2     -0.00276  -0.00527  -0.00045   0.00068   0.00166   0.00278
 120  N 4   f 3     -0.00231  -0.00124  -0.00036   0.00064  -0.00119   0.00028
 121  N 4   f 4      0.00115  -0.00429  -0.00138  -0.00073  -0.00031  -0.00070
 122  N 4   f 5      0.00132   0.00094  -0.00168  -0.00215  -0.00201  -0.00018
 123  N 4   f 6      0.00196  -0.00155   0.00264   0.00046   0.00074  -0.00178
 124  N 4   f 7     -0.00202   0.00207   0.00034   0.00160  -0.00058   0.00481
                        19        20        21        22        23        24
 eigenvalues:         -0.055    -0.052     0.103     0.197     0.225     0.226
   1  N 1   s        0.02042  -0.03822   0.01959  -0.00864  -0.00558   0.01013
   2  N 1   s        0.04877  -0.09122   0.04237  -0.01483  -0.01439   0.02593
   3  N 1   s       -0.06239   0.11516  -0.01011  -0.06310   0.03522  -0.06083
   4  N 1   s       -0.19488   0.37232  -0.46602   0.35727   0.09280  -0.16717
   5  N 1   s       -1.03269   1.98446   0.85365   0.67667  -1.04394   1.79087
   6  N 1   px      -0.09192   0.09094   0.00901  -0.11473   0.02571  -0.04435
   7  N 1   py       0.09897   0.01970  -0.01352  -0.01861  -0.02857   0.04557
   8  N 1   pz      -0.07163   0.21453   0.04228  -0.06542   0.08948  -0.15548
   9  N 1   px      -0.12492   0.15942   0.12091  -0.08660  -0.08147   0.04222
  10  N 1   py       0.09358   0.01750  -0.00142   0.04354   0.02789   0.19459
  11  N 1   pz      -0.10830   0.28192   0.12323  -0.19330   0.19256  -0.23571
  12  N 1   px      -0.51264   0.51851  -0.06445   0.78666  -0.08444   0.34093
  13  N 1   py       0.55392   0.14968   0.03463   0.07396  -0.07322  -0.39197
  14  N 1   pz      -0.31933   1.07750  -0.14547   0.58151  -0.62233   0.83866
  15  N 1   d 1     -0.00969   0.00098   0.00120   0.00381   0.00703   0.00756
  16  N 1   d 2     -0.01209  -0.00693   0.00019   0.00012   0.00407   0.00970
  17  N 1   d 3     -0.00657  -0.01066  -0.00038  -0.00664   0.01072  -0.00719
  18  N 1   d 4      0.00532  -0.00190   0.00318  -0.01096   0.00256  -0.00213
  19  N 1   d 5     -0.00323   0.00233   0.00288  -0.00146  -0.00568  -0.00003
  20  N 1   d 1      0.00160   0.00584   0.01543   0.04564  -0.00808   0.00438
  21  N 1   d 2      0.00144  -0.00452  -0.00129   0.00203   0.03917   0.00137
  22  N 1   d 3     -0.00987   0.01449  -0.01140  -0.03239   0.01508   0.03781
  23  N 1   d 4     -0.02082   0.04761  -0.00123   0.03583  -0.04201   0.01927
  24  N 1   d 5     -0.01878   0.02272   0.01503   0.06644   0.01614   0.03756
  25  N 1   f 1     -0.00198   0.00132   0.00086   0.00642  -0.00161   0.00164
  26  N 1   f 2     -0.00286  -0.00140   0.00213   0.00326   0.00367  -0.00146
  27  N 1   f 3     -0.00166  -0.00221  -0.00122   0.00026   0.00363   0.00095
  28  N 1   f 4     -0.00261  -0.00197  -0.00166  -0.00519   0.00312   0.00482
  29  N 1   f 5     -0.00095   0.00075  -0.00064  -0.00726  -0.00093   0.00037
  30  N 1   f 6     -0.00144   0.00256   0.00245   0.00312   0.00090  -0.00065
  31  N 1   f 7     -0.00168   0.00155   0.00218   0.00493   0.00315   0.00146
  32  N 2   s        0.00333  -0.00277   0.01924  -0.00364  -0.00021  -0.00018
  33  N 2   s        0.00796  -0.00661   0.03838  -0.01500  -0.00069  -0.00032
  34  N 2   s       -0.01036   0.00831   0.04474   0.12738   0.00411  -0.00153
  35  N 2   s       -0.03095   0.02702  -0.62954  -0.11835  -0.00956   0.01728
  36  N 2   s       -0.17237   0.15209  -0.02980  -2.71974  -0.04581  -0.00457
  37  N 2   px      -0.00119  -0.00682  -0.14638  -0.20670   0.09355  -0.04163
  38  N 2   py       0.03163   0.00028  -0.08513  -0.11695  -0.15582  -0.05065
  39  N 2   pz      -0.00759   0.02412   0.06224   0.08535   0.02524  -0.17226
  40  N 2   px       0.01441  -0.01743  -0.28794  -0.20358   0.24559  -0.10909
  41  N 2   py       0.02087  -0.00793  -0.16628  -0.11361  -0.38986  -0.13325
  42  N 2   pz      -0.00807   0.00908   0.12123   0.08176   0.05879  -0.43945
  43  N 2   px      -0.21093   0.05328   0.92093   1.84421  -0.72580   0.32407
  44  N 2   py       0.51342   0.11090   0.52827   1.04105   1.17944   0.38987
  45  N 2   pz      -0.08899   0.53738  -0.38183  -0.75569  -0.18694   1.30916
  46  N 2   d 1      0.00420   0.00529   0.00442   0.01031   0.00632   0.00500
  47  N 2   d 2     -0.00962   0.00021  -0.00181  -0.00433  -0.00435   0.00550
  48  N 2   d 3     -0.00532  -0.00773  -0.00216  -0.00511   0.00175  -0.00811
  49  N 2   d 4      0.00035   0.01688  -0.00312  -0.00744   0.00148   0.00883
  50  N 2   d 5     -0.01630   0.00376   0.00258   0.00595  -0.01145   0.00036
  51  N 2   d 1     -0.00352   0.00422  -0.04016  -0.10456  -0.02207  -0.01761
  52  N 2   d 2     -0.00572  -0.00531   0.01716   0.04364   0.02366  -0.01374
  53  N 2   d 3     -0.00568  -0.00282   0.02000   0.05147   0.00324   0.02772
  54  N 2   d 4      0.00104   0.00882   0.02975   0.07658  -0.00100  -0.04284
  55  N 2   d 5     -0.00999   0.00511  -0.02277  -0.06199   0.04829  -0.00640
  56  N 2   f 1      0.00193  -0.00157  -0.00168   0.00355  -0.00055   0.00226
  57  N 2   f 2      0.00119  -0.00013   0.00166  -0.00218  -0.00252   0.00297
  58  N 2   f 3      0.00026   0.00026  -0.00166  -0.00311  -0.00039  -0.00298
  59  N 2   f 4     -0.00122   0.00104  -0.00037   0.00307   0.00049  -0.00197
  60  N 2   f 5      0.00068   0.00242   0.00221   0.00094   0.00107  -0.00511
  61  N 2   f 6     -0.00169  -0.00230   0.00229   0.00026   0.00319   0.00240
  62  N 2   f 7      0.00238  -0.00064   0.00096   0.00141  -0.00671  -0.00067
  63  N 3   s        0.02223   0.03927   0.01959  -0.00863  -0.00548  -0.01006
  64  N 3   s        0.05309   0.09372   0.04238  -0.01494  -0.01405  -0.02563
  65  N 3   s       -0.06785  -0.11786  -0.01041  -0.06141   0.03322   0.05786
  66  N 3   s       -0.21223  -0.38720  -0.45993   0.36167   0.09334   0.18384
  67  N 3   s       -1.13336  -2.04587   0.81377   0.59491  -1.00153  -1.74442
  68  N 3   px      -0.06541   0.00451  -0.00860  -0.07339  -0.01168  -0.02411
  69  N 3   py       0.13629   0.10339  -0.03596   0.03139  -0.07514  -0.12275
  70  N 3   pz       0.04752   0.21220  -0.02836   0.10019  -0.05613  -0.10626
  71  N 3   px      -0.08065  -0.03017   0.05634   0.00046  -0.15949  -0.11895
  72  N 3   py       0.15816   0.15247  -0.08405   0.14801  -0.07472  -0.28137
  73  N 3   pz       0.09498   0.29184  -0.14079   0.14593  -0.11380  -0.05412
  74  N 3   px      -0.39996  -0.04013  -0.00594   0.43851   0.20705   0.01943
  75  N 3   py       0.72157   0.47814   0.12353  -0.33096   0.28775   0.81024
  76  N 3   pz       0.20497   1.12631   0.13385  -0.74392   0.49732   0.54588
  77  N 3   d 1     -0.00873   0.00159  -0.00073   0.00485   0.00737  -0.00131
  78  N 3   d 2      0.00237   0.00408   0.00196  -0.00964   0.00218   0.01127
  79  N 3   d 3     -0.01044   0.00902   0.00204  -0.00583   0.01027  -0.00589
  80  N 3   d 4     -0.00399   0.00737  -0.00362   0.00025   0.00572   0.00307
  81  N 3   d 5     -0.01015   0.00134   0.00084   0.00463  -0.00459  -0.00674
  82  N 3   d 1      0.00655   0.01052   0.00802   0.00590   0.00494  -0.01149
  83  N 3   d 2     -0.02569  -0.03685  -0.00534   0.00732  -0.00427  -0.04863
  84  N 3   d 3     -0.01190  -0.02806  -0.00099   0.02024   0.00536  -0.02028
  85  N 3   d 4      0.01433   0.03031  -0.01910  -0.08371   0.03677   0.00549
  86  N 3   d 5     -0.00241   0.00846   0.01203   0.03713   0.04944  -0.01827
  87  N 3   f 1      0.00061  -0.00110  -0.00139  -0.00122  -0.00419  -0.00136
  88  N 3   f 2      0.00151  -0.00212   0.00112   0.00050  -0.00031   0.00267
  89  N 3   f 3      0.00350   0.00125  -0.00044   0.00240  -0.00282   0.00362
  90  N 3   f 4      0.00230  -0.00215   0.00020   0.00136  -0.00266  -0.00075
  91  N 3   f 5     -0.00081  -0.00309   0.00365   0.00735  -0.00221   0.00285
  92  N 3   f 6      0.00157  -0.00019  -0.00134  -0.01019  -0.00239   0.00109
  93  N 3   f 7     -0.00195   0.00072   0.00167   0.00279   0.00297  -0.00147
  94  N 4   s       -0.04584   0.00176   0.01964  -0.00885   0.01117  -0.00028
  95  N 4   s       -0.10937   0.00419   0.04250  -0.01559   0.02885  -0.00074
  96  N 4   s        0.13807  -0.00507  -0.01070  -0.05871  -0.07086   0.00194
  97  N 4   s        0.44941  -0.01972  -0.46078   0.36908  -0.19234   0.01144
  98  N 4   s        2.33082  -0.08660   0.82247   0.48013   2.09368  -0.06208
  99  N 4   px      -0.11895   0.02154  -0.03580  -0.01413   0.13668  -0.00325
 100  N 4   py       0.23569   0.01739   0.02928  -0.11567  -0.13783   0.00356
 101  N 4   pz      -0.04271   0.08983  -0.00082   0.03741   0.01177  -0.00379
 102  N 4   px      -0.14617   0.02096  -0.04535   0.12242   0.33186   0.02524
 103  N 4   py       0.34280   0.01072   0.16226  -0.15794  -0.10283   0.04475
 104  N 4   pz      -0.06933   0.08314  -0.03936   0.01754  -0.04297   0.12204
 105  N 4   px      -0.52075   0.12528   0.10168  -0.03500  -0.79470  -0.05083
 106  N 4   py       1.21866   0.12425  -0.14200   0.82610   0.85851  -0.12297
 107  N 4   pz      -0.23732   0.58110   0.02297  -0.23728  -0.08727  -0.25997
 108  N 4   d 1      0.00650   0.00084   0.00025   0.00943   0.01361   0.00251
 109  N 4   d 2     -0.00178  -0.01353  -0.00245   0.00124  -0.00108   0.01156
 110  N 4   d 3     -0.00005   0.00232  -0.00203   0.00299   0.00548  -0.00663
 111  N 4   d 4     -0.00252   0.01153  -0.00032  -0.00342  -0.00150  -0.00207
 112  N 4   d 5      0.00180   0.00687  -0.00330   0.00673  -0.00253  -0.00472
 113  N 4   d 1     -0.02454   0.00327   0.01755   0.04697  -0.02653  -0.01455
 114  N 4   d 2     -0.02677   0.00390  -0.01103  -0.05013  -0.02435   0.01462
 115  N 4   d 3     -0.03151  -0.00352  -0.00771  -0.03560  -0.03904   0.01946
 116  N 4   d 4      0.00349   0.00464  -0.00936  -0.02436  -0.00451  -0.05554
 117  N 4   d 5     -0.04446   0.00234  -0.00377  -0.04567  -0.02161  -0.01608
 118  N 4   f 1     -0.00139   0.00167  -0.00224  -0.00457   0.00340  -0.00184
 119  N 4   f 2     -0.00042   0.00347  -0.00041  -0.00520  -0.00173  -0.00590
 120  N 4   f 3     -0.00249   0.00154  -0.00136  -0.00050  -0.00119   0.00106
 121  N 4   f 4      0.00252   0.00270   0.00092   0.00397   0.00203  -0.00291
 122  N 4   f 5      0.00050  -0.00063   0.00094  -0.00225  -0.00036   0.00191
 123  N 4   f 6      0.00213   0.00114   0.00294   0.00469  -0.00128   0.00050
 124  N 4   f 7      0.00097  -0.00120  -0.00196  -0.00922   0.00142   0.00264
                        25        26        27        28        29        30
 eigenvalues:          0.240     0.241     0.256     0.259     0.260     0.281
   1  N 1   s        0.00277  -0.00812   0.01385   0.01652   0.01959   0.00632
   2  N 1   s        0.00301  -0.01007   0.03113   0.03916   0.04681   0.01067
   3  N 1   s        0.05441  -0.13870   0.00277  -0.04764  -0.06309   0.08517
   4  N 1   s       -0.15538   0.47250  -0.77500  -0.38329  -0.42324  -1.12115
   5  N 1   s       -0.86139   1.99995   1.27673   2.05907   2.53813  -0.08722
   6  N 1   px       0.08656  -0.16098  -0.14217  -0.13942  -0.06205   0.08375
   7  N 1   py      -0.03584  -0.01765  -0.07503   0.14111  -0.11671   0.03654
   8  N 1   pz       0.04510  -0.16232   0.04842  -0.03502  -0.15993  -0.02114
   9  N 1   px       0.08829  -0.25659  -0.36125  -0.22280   0.01217  -0.02667
  10  N 1   py       0.08002  -0.01900  -0.18352   0.34381  -0.31572   0.08227
  11  N 1   pz       0.06522  -0.10592   0.11343   0.08744  -0.18312  -0.25599
  12  N 1   px      -0.73801   1.43648   1.00967   0.82558   0.38083   0.15007
  13  N 1   py       0.25982   0.08758   0.40307  -0.74099   0.76216  -0.21996
  14  N 1   pz      -0.48056   1.50303  -0.00654   0.03287   0.71644   0.77705
  15  N 1   d 1      0.00230  -0.00151  -0.00469   0.00589  -0.00774   0.00223
  16  N 1   d 2      0.00443   0.00000  -0.00178   0.00592  -0.00891   0.00076
  17  N 1   d 3      0.00324   0.00001   0.00348   0.00980   0.00064  -0.01030
  18  N 1   d 4      0.00724  -0.02104  -0.01106   0.00088   0.00196  -0.02466
  19  N 1   d 5      0.00690  -0.01270  -0.01079  -0.00358   0.00049  -0.00982
  20  N 1   d 1      0.05360  -0.00657   0.03823  -0.02692  -0.00393  -0.01972
  21  N 1   d 2      0.05924   0.02689  -0.01813  -0.01237   0.03793   0.00594
  22  N 1   d 3      0.02370   0.07628  -0.00819  -0.01897   0.02173   0.01323
  23  N 1   d 4     -0.06427   0.13000  -0.00730   0.03266   0.02571  -0.00332
  24  N 1   d 5     -0.02189   0.04118   0.03106  -0.00361   0.00774  -0.02262
  25  N 1   f 1      0.00513   0.00182   0.00621  -0.00114   0.00074   0.00009
  26  N 1   f 2      0.01153  -0.00013  -0.00025  -0.00389   0.00108  -0.00313
  27  N 1   f 3      0.00427   0.00582  -0.00157   0.00100   0.00560   0.00377
  28  N 1   f 4      0.00633   0.00317   0.00090  -0.00317   0.00144   0.00157
  29  N 1   f 5      0.00122   0.00838  -0.00687  -0.00219  -0.00072  -0.00169
  30  N 1   f 6     -0.00235   0.00221  -0.00270  -0.00148  -0.00265  -0.00482
  31  N 1   f 7     -0.00032  -0.00091   0.00138  -0.00268  -0.00095  -0.00339
  32  N 2   s        0.00037  -0.00024  -0.02193   0.00120  -0.00009   0.02775
  33  N 2   s        0.00084  -0.00043  -0.05488   0.00295  -0.00002   0.06114
  34  N 2   s       -0.00025  -0.00232   0.12931  -0.00555  -0.00424   0.03251
  35  N 2   s       -0.00246   0.02032  -0.09165  -0.01523   0.04131  -1.71670
  36  N 2   s        0.03803  -0.01379  -2.54113   0.13816   0.00167   2.81518
  37  N 2   px      -0.00545   0.00672  -0.15162  -0.06150  -0.01109   0.07988
  38  N 2   py       0.00798   0.00142  -0.08130   0.10040  -0.05370   0.04326
  39  N 2   pz      -0.00234   0.01154   0.05881  -0.03696  -0.10992  -0.03753
  40  N 2   px      -0.12291   0.07376  -0.02634  -0.13306  -0.02814   0.24506
  41  N 2   py       0.20206   0.03791   0.00466   0.19651  -0.11233   0.13599
  42  N 2   pz      -0.00422   0.22483  -0.00206  -0.06668  -0.21032  -0.10822
  43  N 2   px       0.09858  -0.07023   0.32077   0.38338   0.09545  -1.24348
  44  N 2   py      -0.12920  -0.02207   0.12752  -0.59714   0.34513  -0.69791
  45  N 2   pz       0.01246  -0.16608  -0.08815   0.21392   0.65333   0.54915
  46  N 2   d 1     -0.00397  -0.00373  -0.01585   0.00285  -0.00086  -0.01792
  47  N 2   d 2      0.00547  -0.00250   0.00690  -0.00042  -0.00364   0.00747
  48  N 2   d 3      0.00214   0.00616   0.00786   0.00291   0.00141   0.00878
  49  N 2   d 4     -0.00236  -0.01050   0.01177   0.00023  -0.00107   0.01294
  50  N 2   d 5      0.01165  -0.00349  -0.00849  -0.00120   0.00152  -0.01023
  51  N 2   d 1     -0.02013  -0.02474  -0.04554  -0.00726  -0.01471   0.00293
  52  N 2   d 2      0.04671  -0.00453   0.01886  -0.03495   0.03168  -0.00088
  53  N 2   d 3      0.03136   0.03457   0.02326  -0.03600   0.02371  -0.00068
  54  N 2   d 4     -0.01252  -0.08175   0.03171  -0.01817  -0.06941  -0.00697
  55  N 2   d 5      0.07805  -0.02826  -0.02746  -0.05718  -0.01305   0.00274
  56  N 2   f 1     -0.00260   0.00464  -0.00302   0.00601   0.00143   0.00471
  57  N 2   f 2     -0.00432   0.00399   0.00257   0.00204  -0.00210  -0.00443
  58  N 2   f 3     -0.00144  -0.00282   0.00013   0.00161   0.00266   0.00295
  59  N 2   f 4      0.00253  -0.00415  -0.00202  -0.00517  -0.00130   0.00164
  60  N 2   f 5     -0.00171  -0.00881   0.00146   0.00291  -0.00385  -0.00505
  61  N 2   f 6      0.00658   0.00599   0.00205  -0.00104   0.00713  -0.00480
  62  N 2   f 7     -0.01018   0.00142   0.00025   0.00198   0.00266  -0.00200
  63  N 3   s        0.00421   0.00689   0.01281   0.00878  -0.02545   0.00490
  64  N 3   s        0.00407   0.00836   0.02872   0.02060  -0.06037   0.00716
  65  N 3   s        0.09186   0.12142   0.00510  -0.02165   0.07251   0.09155
  66  N 3   s       -0.25936  -0.40718  -0.74874  -0.21015   0.62423  -1.09216
  67  N 3   s       -1.47374  -1.73967   1.15283   1.05088  -3.19421  -0.30940
  68  N 3   px       0.08051   0.05596  -0.13891  -0.12751   0.02276   0.07990
  69  N 3   py      -0.09091  -0.07741  -0.07009   0.14738  -0.05065   0.02554
  70  N 3   pz      -0.10599  -0.17645   0.05653  -0.06596  -0.19743  -0.05371
  71  N 3   px       0.08400   0.16406  -0.35017  -0.30072  -0.01431   0.07095
  72  N 3   py      -0.00442  -0.08846  -0.15775   0.31430   0.05489   0.20697
  73  N 3   pz      -0.17972  -0.15387   0.15698  -0.25475  -0.23913   0.13834
  74  N 3   px      -0.65149  -0.49796   0.84787   0.77580  -0.25780  -0.17210
  75  N 3   py       0.81823   0.77344   0.19259  -0.77201   0.10024  -0.58592
  76  N 3   pz       1.01044   1.56255  -0.59617   0.42964   1.06930  -0.42672
  77  N 3   d 1     -0.00341  -0.00750   0.00323   0.00724   0.00115   0.00799
  78  N 3   d 2      0.00932   0.01115  -0.00519  -0.00065  -0.00530  -0.02065
  79  N 3   d 3      0.01072   0.00817  -0.00657   0.01278   0.00483  -0.01367
  80  N 3   d 4     -0.00860  -0.01467   0.01332   0.00511  -0.00238   0.00990
  81  N 3   d 5      0.00350  -0.00139  -0.00378   0.00084   0.00466   0.00519
  82  N 3   d 1      0.06916   0.02103   0.03492  -0.02974   0.02535  -0.00885
  83  N 3   d 2     -0.07765  -0.09124   0.00227   0.00064  -0.01707  -0.00363
  84  N 3   d 3      0.00599  -0.10956  -0.00854  -0.02363  -0.03722  -0.00340
  85  N 3   d 4      0.05633   0.01687  -0.03807  -0.01864  -0.00178   0.02864
  86  N 3   d 5      0.04391   0.01024   0.01780  -0.02390  -0.00396  -0.01340
  87  N 3   f 1     -0.00159  -0.00215   0.00268   0.00070  -0.00066   0.00212
  88  N 3   f 2     -0.00748   0.00162  -0.00482   0.00177   0.00149  -0.00227
  89  N 3   f 3     -0.00050   0.00818   0.00299   0.00363  -0.00200   0.00279
  90  N 3   f 4     -0.00842   0.00869   0.00353   0.00329   0.00297  -0.00037
  91  N 3   f 5      0.00052   0.00155   0.00119  -0.00020   0.00449  -0.00585
  92  N 3   f 6     -0.00248  -0.00033  -0.00604   0.00041   0.00350  -0.00109
  93  N 3   f 7      0.00707   0.00126   0.00298  -0.00364   0.00194  -0.00273
  94  N 4   s       -0.00833   0.00150   0.01177  -0.02639   0.00460   0.00619
  95  N 4   s       -0.00984   0.00216   0.02656  -0.06247   0.01092   0.01027
  96  N 4   s       -0.15063   0.02004   0.00263   0.07376  -0.01409   0.08677
  97  N 4   s        0.49942  -0.07652  -0.71212   0.62642  -0.08325  -1.12172
  98  N 4   s        2.25258  -0.24760   1.10093  -3.25028   0.58390  -0.11259
  99  N 4   px       0.05256  -0.01574  -0.13372  -0.05188  -0.03577   0.06404
 100  N 4   py      -0.24016   0.01922  -0.08603   0.17378  -0.09114   0.05688
 101  N 4   pz       0.05448  -0.04409   0.05379  -0.08194  -0.18538  -0.03837
 102  N 4   px      -0.02447   0.02263  -0.32309  -0.00678  -0.11420   0.21335
 103  N 4   py      -0.27871   0.06418  -0.23445   0.12961  -0.16816  -0.15711
 104  N 4   pz       0.10328   0.07225   0.13774  -0.14178  -0.48236  -0.01291
 105  N 4   px      -0.54466   0.13880   0.58985   0.05523   0.26237  -0.58940
 106  N 4   py       2.14864  -0.19841   0.81287  -0.88102   0.48031   0.52843
 107  N 4   pz      -0.48624   0.31997  -0.36626   0.49757   1.07784   0.00726
 108  N 4   d 1      0.00452  -0.00119  -0.00240   0.00680  -0.00352   0.01455
 109  N 4   d 2      0.01220   0.00222   0.00870  -0.00351  -0.01293   0.00900
 110  N 4   d 3      0.01001  -0.00167   0.00673   0.00347   0.00464   0.01155
 111  N 4   d 4     -0.00197  -0.00404   0.00130  -0.00008   0.00536  -0.00384
 112  N 4   d 5      0.02031  -0.00512   0.01288  -0.00057   0.00463   0.01908
 113  N 4   d 1     -0.09185   0.01633   0.02349   0.01402  -0.00429  -0.01733
 114  N 4   d 2     -0.03464   0.07567  -0.02502   0.01130   0.03332   0.01899
 115  N 4   d 3     -0.05862  -0.01348  -0.03281  -0.00402  -0.00364   0.01544
 116  N 4   d 4      0.02450  -0.05037  -0.02614  -0.02099  -0.02975   0.01014
 117  N 4   d 5     -0.11842  -0.01810   0.00466   0.03207  -0.02436   0.00630
 118  N 4   f 1     -0.00321  -0.00491   0.00376  -0.00062  -0.00239   0.00281
 119  N 4   f 2      0.00062  -0.00830  -0.00561   0.00017  -0.00432  -0.00109
 120  N 4   f 3     -0.00260  -0.00681   0.00000  -0.00413  -0.00109   0.00351
 121  N 4   f 4      0.00186  -0.00745   0.00250   0.00014  -0.00293  -0.00125
 122  N 4   f 5     -0.00189   0.00226  -0.00126   0.00425   0.00100  -0.00336
 123  N 4   f 6     -0.00250  -0.00608  -0.00006   0.00329  -0.00276  -0.00536
 124  N 4   f 7      0.00799  -0.00039  -0.00613   0.00123   0.00084   0.00061
                        31        32        33        34        35        36
 eigenvalues:          0.379     0.379     0.395     0.483     0.495     0.498
   1  N 1   s       -0.00327  -0.00048  -0.00017  -0.00687   0.02540  -0.00405
   2  N 1   s       -0.00802  -0.00118  -0.00046  -0.01336   0.04897  -0.00778
   3  N 1   s        0.01572   0.00259   0.00231  -0.03657   0.13543  -0.02282
   4  N 1   s        0.00927   0.00082  -0.00512   0.69571  -2.52576   0.41667
   5  N 1   s       -0.03630  -0.01074  -0.02486  -2.95256  13.17711  -1.99503
   6  N 1   px      -0.10181  -0.03798  -0.06183  -0.01510   0.01296  -0.01352
   7  N 1   py      -0.10395   0.04890   0.15165  -0.01184   0.00257   0.02136
   8  N 1   pz       0.12705   0.04226   0.06496   0.00917   0.01612   0.00777
   9  N 1   px      -0.23553  -0.08353  -0.12027  -0.19010   0.13229  -0.13911
  10  N 1   py      -0.21871   0.10386   0.28988  -0.15979   0.00723   0.24190
  11  N 1   pz       0.24186   0.08506   0.11963   0.13362   0.22903   0.08913
  12  N 1   px       1.43246   0.45379   0.77299  -1.67997   3.48156  -1.11845
  13  N 1   py       1.24852  -0.51121  -1.87214  -0.78667  -0.01940   1.16465
  14  N 1   pz      -1.33499  -0.44614  -0.78693  -0.06441   4.06291  -0.03113
  15  N 1   d 1     -0.01149   0.00242   0.01060   0.00446   0.00166   0.00262
  16  N 1   d 2     -0.00555   0.00399   0.01309  -0.00448  -0.00056  -0.00301
  17  N 1   d 3      0.01471   0.00528   0.00982   0.00395  -0.00841  -0.00144
  18  N 1   d 4     -0.00028  -0.00055  -0.00159   0.00502  -0.02513   0.00713
  19  N 1   d 5     -0.01226  -0.00247  -0.00260   0.00706  -0.01225  -0.00247
  20  N 1   d 1      0.09067  -0.00972  -0.07862  -0.00365   0.01976   0.12451
  21  N 1   d 2      0.02772  -0.03920  -0.11755  -0.11316  -0.02200   0.03901
  22  N 1   d 3     -0.10144  -0.04752  -0.09205   0.11848   0.07008   0.02046
  23  N 1   d 4     -0.01385   0.01155   0.02189  -0.05322   0.11903   0.02945
  24  N 1   d 5      0.08969   0.00391   0.00613  -0.03181   0.04017  -0.11579
  25  N 1   f 1      0.00910   0.00072  -0.00309  -0.00212   0.00379   0.00172
  26  N 1   f 2      0.00683  -0.00260  -0.01064  -0.00134  -0.00426   0.00371
  27  N 1   f 3     -0.00461  -0.00441  -0.00954  -0.00272   0.00308   0.00021
  28  N 1   f 4     -0.00411  -0.00730  -0.01096   0.00346  -0.00019   0.00121
  29  N 1   f 5     -0.00940   0.00069  -0.00334   0.00214   0.00659   0.00110
  30  N 1   f 6      0.00566  -0.00336   0.00236  -0.00195   0.00498  -0.00133
  31  N 1   f 7      0.00825   0.00236  -0.00508  -0.00150   0.00143  -0.00207
  32  N 2   s        0.00031  -0.00008   0.00000   0.02453  -0.00287   0.00241
  33  N 2   s        0.00078  -0.00017   0.00000   0.04893  -0.00568   0.00477
  34  N 2   s       -0.00284  -0.00011  -0.00002   0.10181  -0.01314   0.01061
  35  N 2   s        0.00218   0.00518   0.00015  -2.40295   0.29768  -0.24502
  36  N 2   s        0.04532  -0.01698   0.00014  13.54807  -1.56038   1.40869
  37  N 2   px      -0.07455   0.04497  -0.00023  -0.00155   0.01588  -0.01599
  38  N 2   py       0.04296  -0.12858   0.00023  -0.00550  -0.00074   0.03049
  39  N 2   pz      -0.12433  -0.06945  -0.00025   0.00426   0.03068   0.00944
  40  N 2   px      -0.13056   0.07490  -0.00047  -0.18795   0.14306  -0.14219
  41  N 2   py       0.07022  -0.21634   0.00137  -0.15180   0.00043   0.24281
  42  N 2   pz      -0.21009  -0.11717   0.00090   0.11511   0.25173   0.08276
  43  N 2   px       1.06280  -0.62336   0.00462  -4.32361   1.04975  -1.00231
  44  N 2   py      -0.58738   1.79639   0.00064  -2.70478   0.23342   0.90139
  45  N 2   pz       1.73847   0.97361   0.01176   1.99232   0.95344   0.52095
  46  N 2   d 1      0.00155   0.00472   0.00005  -0.02080   0.00396  -0.00579
  47  N 2   d 2      0.00421  -0.00396  -0.00001   0.00903  -0.00533  -0.00411
  48  N 2   d 3     -0.00336  -0.00523  -0.00007   0.01150   0.00236  -0.00363
  49  N 2   d 4      0.00800   0.00654   0.00014   0.01609   0.00256   0.00232
  50  N 2   d 5      0.00827  -0.00732   0.00004  -0.01190   0.00485  -0.00180
  51  N 2   d 1     -0.01465  -0.06648  -0.00021   0.10045  -0.00708  -0.12916
  52  N 2   d 2     -0.05918   0.04761   0.00007  -0.04611  -0.12904  -0.06730
  53  N 2   d 3      0.04766   0.06566   0.00116  -0.02100   0.14048  -0.06795
  54  N 2   d 4     -0.10140  -0.08527  -0.00110  -0.06204   0.00148  -0.04069
  55  N 2   d 5     -0.10377   0.09891   0.00002   0.03999   0.00265   0.09920
  56  N 2   f 1      0.00940  -0.00229   0.00160  -0.00805   0.00222  -0.00064
  57  N 2   f 2      0.00535  -0.00429   0.00384   0.00591   0.00123   0.00003
  58  N 2   f 3      0.00057  -0.00183   0.00284   0.00572  -0.00201  -0.00017
  59  N 2   f 4     -0.00808   0.00212   0.00398  -0.00689  -0.00035  -0.00086
  60  N 2   f 5     -0.00726  -0.00927   0.00020  -0.00143  -0.00254  -0.00076
  61  N 2   f 6      0.00456   0.01292   0.00125   0.00017   0.00076   0.00220
  62  N 2   f 7      0.00866  -0.00764  -0.00086  -0.00163   0.00125  -0.00371
  63  N 3   s        0.00128   0.00284   0.00017  -0.00979  -0.01385  -0.02055
  64  N 3   s        0.00311   0.00693   0.00045  -0.01906  -0.02672  -0.03954
  65  N 3   s       -0.00556  -0.01220  -0.00213  -0.05023  -0.07318  -0.11149
  66  N 3   s       -0.00630  -0.01384   0.00559   0.96986   1.37191   2.06906
  67  N 3   s        0.00859   0.00808   0.01776  -4.51092  -7.31256 -10.73275
  68  N 3   px       0.09396   0.11250   0.10289  -0.01464   0.01106  -0.01511
  69  N 3   py       0.01694   0.14254  -0.09948  -0.01281  -0.00276   0.01820
  70  N 3   pz       0.03721  -0.01837   0.10266   0.00733   0.01977   0.00655
  71  N 3   px       0.20068   0.23886   0.19571  -0.19812   0.14752  -0.14046
  72  N 3   py       0.02775   0.28466  -0.19263  -0.17042  -0.00648   0.22684
  73  N 3   pz       0.07000  -0.06032   0.19246   0.10392   0.24299   0.06690
  74  N 3   px      -1.10784  -1.45492  -1.27476  -1.51224   0.01574  -1.74460
  75  N 3   py      -0.19527  -1.58559   1.24183  -0.13312   1.08284   2.71324
  76  N 3   pz      -0.31059   0.40235  -1.25224   1.73325   2.99868   3.03280
  77  N 3   d 1     -0.00265   0.00204  -0.00902   0.00287  -0.00619  -0.00699
  78  N 3   d 2     -0.00262  -0.00848   0.00233   0.01049   0.01297   0.01427
  79  N 3   d 3     -0.00428   0.00402  -0.01542   0.00340   0.00776   0.01212
  80  N 3   d 4     -0.00877  -0.01470  -0.00691  -0.00790  -0.00387  -0.01191
  81  N 3   d 5      0.00367   0.01247  -0.00436   0.00024   0.00269  -0.00651
  82  N 3   d 1      0.01128  -0.03156   0.07293   0.09446  -0.06935   0.05150
  83  N 3   d 2      0.02802   0.05799  -0.00710   0.07344  -0.02713  -0.13854
  84  N 3   d 3      0.03468  -0.01800   0.12703  -0.08325  -0.11872   0.02720
  85  N 3   d 4      0.07274   0.10487   0.06742   0.07445   0.02207   0.04071
  86  N 3   d 5     -0.01003  -0.09752   0.05534  -0.05849   0.09360  -0.02320
  87  N 3   f 1     -0.00400   0.00336  -0.00226   0.00056  -0.00332  -0.00254
  88  N 3   f 2     -0.00496   0.00329  -0.00564  -0.00189   0.00020  -0.00408
  89  N 3   f 3     -0.00503   0.00015  -0.00893   0.00031   0.00519   0.00595
  90  N 3   f 4     -0.00365  -0.00277  -0.01161   0.00176   0.00311  -0.00189
  91  N 3   f 5     -0.00595  -0.01134  -0.00571  -0.00284  -0.00129  -0.00072
  92  N 3   f 6      0.00270   0.01108  -0.00441   0.00500  -0.00050   0.00106
  93  N 3   f 7     -0.00356  -0.00713   0.00861   0.00119   0.00202   0.00402
  94  N 4   s        0.00173  -0.00229   0.00000  -0.01357  -0.00820   0.02141
  95  N 4   s        0.00422  -0.00561   0.00001  -0.02641  -0.01579   0.04117
  96  N 4   s       -0.00701   0.00969  -0.00018  -0.06922  -0.04413   0.11648
  97  N 4   s       -0.00944   0.01140  -0.00035   1.33072   0.81593  -2.14604
  98  N 4   s       -0.01542   0.01835   0.00683  -6.39009  -4.28277  11.27153
  99  N 4   px       0.12834  -0.14048  -0.03940  -0.01743   0.01071  -0.00827
 100  N 4   py       0.02950  -0.00276  -0.05022  -0.00892   0.00098   0.02053
 101  N 4   pz       0.02361   0.08277  -0.16112   0.00867   0.02221   0.00687
 102  N 4   px       0.26472  -0.28536  -0.07549  -0.21396   0.14207  -0.13120
 103  N 4   py       0.07610  -0.02270  -0.09583  -0.13731   0.00911   0.22458
 104  N 4   pz       0.05053   0.18013  -0.31026   0.11560   0.25040   0.08578
 105  N 4   px      -1.47860   1.65455   0.48738  -0.55810   1.04453  -1.55443
 106  N 4   py      -0.47251   0.24071   0.62595  -2.66110  -1.20349   4.34306
 107  N 4   pz      -0.17853  -0.99058   2.00006   1.05338   1.47913  -0.39629
 108  N 4   d 1      0.01208  -0.01488  -0.00168  -0.00551  -0.00221   0.01194
 109  N 4   d 2     -0.00092   0.01070  -0.01541  -0.00816  -0.00241   0.00839
 110  N 4   d 3     -0.00262  -0.00010   0.00568  -0.01175  -0.00603   0.00750
 111  N 4   d 4     -0.00579   0.00282   0.00833  -0.00138   0.00737  -0.00147
 112  N 4   d 5     -0.00666   0.00457   0.00699  -0.00810  -0.00603   0.01877
 113  N 4   d 1     -0.08353   0.11428   0.00661  -0.07228   0.09489  -0.07257
 114  N 4   d 2      0.00926  -0.07757   0.12394   0.04746   0.12567   0.00699
 115  N 4   d 3      0.01677  -0.01241  -0.03583  -0.05026  -0.05289  -0.12762
 116  N 4   d 4      0.06213  -0.01712  -0.08670  -0.02438   0.04847   0.01857
 117  N 4   d 5      0.04134  -0.01827  -0.06102   0.13560  -0.01880  -0.04950
 118  N 4   f 1      0.00269  -0.00230  -0.00687   0.00483  -0.00083  -0.00239
 119  N 4   f 2      0.00899  -0.00258  -0.01333   0.00123  -0.00088  -0.00053
 120  N 4   f 3      0.00406  -0.00151  -0.00331   0.00002  -0.00148  -0.00460
 121  N 4   f 4      0.00135   0.00836  -0.00778  -0.00338  -0.00348   0.00445
 122  N 4   f 5      0.00143   0.00203   0.00530   0.00313   0.00058  -0.00185
 123  N 4   f 6     -0.00706   0.00605  -0.00536  -0.00155  -0.00209  -0.00102
 124  N 4   f 7      0.00599  -0.01212   0.00336   0.00077  -0.00345   0.00628
                        37        38        39        40        41        42
 eigenvalues:          0.736     0.742     0.751     1.071     1.130     1.135
   1  N 1   s       -0.00338   0.00926   0.00001  -0.00148   0.00210  -0.00065
   2  N 1   s       -0.00667   0.01821  -0.00025  -0.01232   0.00537  -0.00174
   3  N 1   s       -0.02209   0.06221   0.00698   0.25511  -0.00200   0.00340
   4  N 1   s        0.44581  -1.23070  -0.04725  -1.76285  -0.00144  -0.02235
   5  N 1   s       -2.38430   6.73821   0.26152   0.60115  -0.48627   0.15963
   6  N 1   px      -0.03986  -0.00829  -0.05698  -0.00863  -0.05445   0.03942
   7  N 1   py       0.07074   0.02415  -0.06081  -0.00005  -0.05363  -0.04797
   8  N 1   pz       0.03436   0.02415   0.05510  -0.00588   0.02820  -0.03141
   9  N 1   px      -0.11348   0.02066  -0.14315  -0.40349  -0.17658   0.11803
  10  N 1   py       0.17502   0.05942  -0.14986  -0.01969  -0.15559  -0.14396
  11  N 1   pz       0.06826   0.10490   0.13244  -0.33604   0.06227  -0.09378
  12  N 1   px      -0.98626   1.77699  -0.31993   0.63994  -0.11207   0.04046
  13  N 1   py       0.59532   0.21550  -0.43966  -0.01419   0.02438   0.00463
  14  N 1   pz      -0.34708   1.99772   0.47640   0.66187  -0.15881   0.05873
  15  N 1   d 1     -0.00729  -0.00225   0.00079   0.00044   0.00813   0.00256
  16  N 1   d 2     -0.00227  -0.00094   0.00764   0.00003   0.00300   0.00781
  17  N 1   d 3     -0.00204  -0.00241  -0.00847   0.00225  -0.00547   0.00815
  18  N 1   d 4     -0.00075  -0.00504   0.00122   0.01180  -0.00126  -0.00211
  19  N 1   d 5      0.00651   0.00020   0.00086   0.00656   0.00726  -0.00081
  20  N 1   d 1     -0.23667  -0.07371  -0.18282   0.00885   0.30415  -0.12925
  21  N 1   d 2      0.11156   0.02584   0.30830  -0.01576  -0.10550   0.30464
  22  N 1   d 3      0.06120   0.05941  -0.21615   0.12310  -0.01248   0.26082
  23  N 1   d 4     -0.18765   0.03369   0.13324   0.41042  -0.17408  -0.15358
  24  N 1   d 5      0.24794   0.15033  -0.13679   0.21027   0.28868   0.18734
  25  N 1   f 1      0.00222  -0.00527  -0.00426   0.00140  -0.00774  -0.00139
  26  N 1   f 2      0.00150   0.00656  -0.00277  -0.00219  -0.00608  -0.00675
  27  N 1   f 3      0.00546  -0.00277   0.00233   0.00250   0.00015  -0.00587
  28  N 1   f 4      0.00441   0.00200   0.00046  -0.00381   0.00309  -0.00759
  29  N 1   f 5      0.00143  -0.00044   0.00364   0.01366   0.00597  -0.00403
  30  N 1   f 6     -0.00003  -0.00102  -0.00147   0.01407  -0.00380   0.00257
  31  N 1   f 7      0.00177   0.00029  -0.00370   0.00551  -0.00630   0.00028
  32  N 2   s        0.00200  -0.00247   0.00794  -0.00050   0.00020  -0.00004
  33  N 2   s        0.00405  -0.00504   0.01631  -0.00897   0.00060  -0.00023
  34  N 2   s        0.01165  -0.01366   0.04221   0.21714  -0.00400   0.00408
  35  N 2   s       -0.27873   0.34578  -1.10367  -1.74849   0.03293  -0.02648
  36  N 2   s        1.55706  -1.90217   6.27331   1.24110  -0.05638  -0.00373
  37  N 2   px      -0.04014   0.02938   0.00046  -0.02772   0.01735  -0.01943
  38  N 2   py       0.06599   0.01432  -0.02327  -0.01693   0.00311   0.03642
  39  N 2   pz       0.00875   0.07152   0.02838   0.01274   0.03871   0.00534
  40  N 2   px      -0.11566   0.08638  -0.02123   0.36202   0.05892  -0.07170
  41  N 2   py       0.17610   0.04241  -0.07724   0.20496   0.00723   0.15469
  42  N 2   pz       0.02621   0.18991   0.08788  -0.14507   0.15980   0.01937
  43  N 2   px      -0.84536   0.83483  -1.88990  -1.00343  -0.04459   0.08492
  44  N 2   py       0.34189   0.46443  -1.30829  -0.58167   0.00861  -0.18114
  45  N 2   pz       0.28255   0.39127   1.04764   0.41814  -0.19826  -0.02050
  46  N 2   d 1      0.00931   0.00401  -0.00512   0.01128   0.00354   0.00400
  47  N 2   d 2      0.00140   0.00966   0.00433  -0.00452   0.00216  -0.00681
  48  N 2   d 3      0.00509  -0.01009  -0.00225  -0.00552  -0.00528  -0.00497
  49  N 2   d 4      0.00364   0.00315   0.00322  -0.00773   0.01222   0.00351
  50  N 2   d 5     -0.00956  -0.00001   0.00007   0.00676   0.00629  -0.01129
  51  N 2   d 1      0.33509  -0.00040   0.00404   0.41647   0.11808  -0.11048
  52  N 2   d 2      0.19245   0.37956   0.03074  -0.17347  -0.19224  -0.38527
  53  N 2   d 3      0.28539  -0.23120  -0.18682  -0.19819   0.04339  -0.38324
  54  N 2   d 4      0.03244  -0.11473  -0.10813  -0.29515   0.50506   0.08212
  55  N 2   d 5     -0.08026  -0.15651   0.02382   0.24375   0.29925  -0.29299
  56  N 2   f 1      0.00045   0.00224   0.00277  -0.01083   0.00844  -0.00591
  57  N 2   f 2     -0.00230   0.00388   0.00152   0.00829   0.00318  -0.00594
  58  N 2   f 3     -0.00268  -0.00164  -0.00645   0.00445  -0.00021  -0.00162
  59  N 2   f 4      0.00072  -0.00326   0.00201  -0.00810  -0.00669   0.00495
  60  N 2   f 5      0.00067  -0.00770   0.00236   0.00142  -0.01017  -0.00617
  61  N 2   f 6      0.00527   0.00135   0.00344   0.00328   0.00924   0.01016
  62  N 2   f 7     -0.00692  -0.00038   0.00493  -0.00083   0.00565  -0.01003
  63  N 3   s       -0.00708  -0.00590  -0.00369  -0.00151  -0.00136  -0.00150
  64  N 3   s       -0.01388  -0.01147  -0.00756  -0.01236  -0.00317  -0.00383
  65  N 3   s       -0.04801  -0.04310  -0.01788   0.25498  -0.00830   0.00144
  66  N 3   s        0.93660   0.80724   0.44815  -1.77308   0.06455  -0.00026
  67  N 3   s       -5.07960  -4.41851  -2.51310   0.66671   0.32451   0.34168
  68  N 3   px      -0.03809   0.07048  -0.04290  -0.00396   0.01668   0.07449
  69  N 3   py       0.04522   0.00484  -0.07316   0.00572   0.06011   0.00349
  70  N 3   pz      -0.03257   0.03440   0.03217   0.00689  -0.04322   0.01261
  71  N 3   px      -0.10921   0.16428  -0.11518  -0.21165   0.06274   0.22988
  72  N 3   py       0.13403   0.02899  -0.16756   0.22337   0.15987   0.00213
  73  N 3   pz      -0.04327   0.11540   0.10273   0.42219  -0.15902   0.02391
  74  N 3   px      -0.99999  -0.02563  -0.62941   0.30228   0.02043   0.02832
  75  N 3   py       1.27301   0.80331  -0.10688  -0.46409  -0.06400  -0.07849
  76  N 3   pz       1.30994   1.67205   1.01393  -0.77209  -0.08456  -0.10953
  77  N 3   d 1     -0.00418   0.00511  -0.00413  -0.00411  -0.00513   0.00134
  78  N 3   d 2      0.00578   0.00317  -0.00624   0.00871   0.00225   0.00302
  79  N 3   d 3     -0.00390   0.00493   0.00604   0.00659  -0.00590   0.00546
  80  N 3   d 4     -0.00151   0.00057  -0.00353  -0.00725   0.00323   0.01029
  81  N 3   d 5      0.00243  -0.00559   0.00274  -0.00106  -0.00855  -0.00106
  82  N 3   d 1     -0.03611   0.25266  -0.28983  -0.12460  -0.26420  -0.18492
  83  N 3   d 2      0.08638  -0.07303  -0.27099   0.32467  -0.11502   0.11707
  84  N 3   d 3     -0.13119  -0.02370   0.15013   0.23124  -0.00870   0.15091
  85  N 3   d 4      0.13154  -0.08214   0.04358  -0.23113   0.04259   0.35077
  86  N 3   d 5      0.23908  -0.22428  -0.06579  -0.05579  -0.36672   0.16271
  87  N 3   f 1      0.00246   0.00416   0.00254   0.00078  -0.00145  -0.00022
  88  N 3   f 2     -0.00148   0.00118   0.00204   0.01044  -0.00388   0.00354
  89  N 3   f 3     -0.00514   0.00073  -0.00019  -0.01479  -0.00215   0.00444
  90  N 3   f 4     -0.00271   0.00378  -0.00018  -0.00286  -0.00498   0.00760
  91  N 3   f 5     -0.00214   0.00329  -0.00368   0.00871   0.00452   0.00787
  92  N 3   f 6     -0.00500  -0.00388   0.00231   0.00147  -0.00837  -0.00532
  93  N 3   f 7     -0.00112  -0.00285  -0.00611  -0.00503   0.00670  -0.00034
  94  N 4   s        0.00805  -0.00049  -0.00572  -0.00150  -0.00056   0.00186
  95  N 4   s        0.01563  -0.00088  -0.01153  -0.01239  -0.00119   0.00444
  96  N 4   s        0.05856  -0.00544  -0.03219   0.25527  -0.00672   0.00867
  97  N 4   s       -1.09058   0.08130   0.72878  -1.76631   0.04404  -0.06826
[...]
    77    3.797586326511e-03
    78   -9.412052558112e-02
    79   -4.431886863439e-02
    80    8.582820143489e-02
    81    3.286284841330e-02
    82    8.923107256587e-02
    83   -6.728162083245e-01
    84   -1.533046601259e+00
    85    1.469186552313e+00
    86    9.019304814137e-01
    87   -4.385438368450e-02
    88    4.892314978428e-01
    89    1.345339153104e-01
    90   -7.261555912808e-01
    91   -2.746967850726e-01
    92    6.239640528905e-01
    93   -2.049980154137e-01
    94    4.739451701433e-03
    95    2.447013114425e-02
    96   -5.908997932892e-01
    97    1.487012915193e+00
    98    2.872593221887e-01
    99    1.362332102470e-01
   100   -2.335011794643e-01
   101   -3.355233810286e-01
   102   -6.704408114587e-01
   103    1.567602266979e+00
   104    2.419244090568e+00
   105   -9.319772794814e-02
   106    2.111093786908e-01
   107    2.761169672737e-01
   108   -2.466054926132e-02
   109   -8.247131567045e-02
   110    1.420157247862e-01
   111   -6.096384946384e-02
   112   -2.010417652282e-02
   113   -4.986534929487e-01
   114   -7.080468743754e-01
   115    1.607866586212e+00
   116   -7.888685671403e-01
   117   -7.704467682202e-01
   118   -5.981778064482e-01
   119    1.168697568689e-01
   120   -2.825203225576e-01
   121   -4.124069001912e-01
   122   -5.146603317707e-01
   123    5.093793073038e-01
   124   -2.742663819026e-01
Sym=X
Ene= 6.590164
Spin=Beta 
Occup=0
     1    9.618856172313e-03
     2    5.172100779519e-02
     3   -1.295978301597e+00
     4    3.341105279672e+00
     5    6.076741825925e-01
     6   -2.487828776251e-02
     7   -3.113360924681e-01
     8   -5.036608517562e-01
     9    1.005829781647e-01
    10    2.003525014808e+00
    11    3.274828630917e+00
    12    5.084274053024e-02
    13    2.369269142580e-01
    14    4.209024620096e-01
    15    1.189419380399e-01
    16   -1.575500970396e-02
    17    1.008722942704e-01
    18   -2.365450622098e-02
    19    3.030965573667e-02
    20    1.831705893015e+00
    21    5.133498990853e-01
    22    1.409855311652e+00
    23   -9.505672215024e-02
    24    6.655142103890e-01
    25    7.301719373269e-01
    26    4.737642142342e-01
    27    6.502986699194e-01
    28   -4.212677591519e-02
    29    4.829188042858e-01
    30    5.528363065052e-02
    31    1.103845320265e-01
    32   -6.601506801225e-04
    33   -3.873784570809e-03
    34    9.847580024132e-02
    35   -2.457408712787e-01
    36   -4.409229778898e-02
    37   -7.339357874049e-03
    38    3.858071349423e-02
    39    1.184825280581e-01
    40    1.477682596307e-01
    41   -1.338688366619e-01
    42   -3.410797677979e-01
    43    1.726393626687e-02
    44   -1.804369403452e-02
    45   -5.482527459646e-02
    46    2.352585569375e-02
    47   -3.682378783927e-02
    48   -2.087593740397e-02
    49   -1.306422536626e-02
    50   -1.613567371548e-02
    51   -1.442912373542e-01
    52    2.873479804661e-01
    53   -1.847037336607e-03
    54   -6.800431138527e-02
    55    8.467880037234e-02
    56   -5.188780026390e-02
    57    8.428647841323e-02
    58   -5.951064967224e-02
    59   -1.360546023611e-01
    60   -7.104083377319e-02
    61    3.604110445920e-02
    62   -5.143240737300e-02
    63   -8.586120439765e-03
    64   -4.638547794391e-02
    65    1.164994157303e+00
    66   -3.008584794370e+00
    67   -5.452146667979e-01
    68   -2.608718015000e-01
    69   -1.855825573367e-02
    70   -5.082467496158e-01
    71    1.783610691256e+00
    72    1.327331668158e-01
    73    3.292131665445e+00
    74    1.916424064499e-01
    75    3.625275133098e-02
    76    4.250073446745e-01
    77   -1.123287418082e-01
    78   -1.122021724529e-01
    79   -2.745310226024e-02
    80   -2.283530849884e-02
    81   -4.839848293843e-02
    82   -1.990140144381e+00
    83   -1.093565151699e+00
    84   -7.311438126804e-01
    85   -1.530042736728e-01
    86   -6.169889961332e-01
    87    7.881487383646e-01
    88    4.666890929689e-01
    89    6.849954248726e-01
    90   -2.701826520622e-02
    91    3.411844623251e-01
    92   -2.011973962852e-01
    93    6.679187844356e-02
    94   -3.341295474001e-04
    95   -1.559567617133e-03
    96    3.579987758773e-02
    97   -8.814477029950e-02
    98   -1.845980801329e-02
    99    8.043446143823e-02
   100    9.802155537656e-02
   101    2.651287733951e-01
   102   -3.595731267684e-01
   103   -4.645110981023e-01
   104   -1.225580915469e+00
   105   -4.777319680395e-02
   106   -6.283397354669e-02
   107   -1.606937213008e-01
   108   -1.308394550084e-02
   109    6.489802001703e-03
   110    1.419469603746e-02
   111   -5.221042951718e-03
   112    9.923139595518e-03
   113    2.615775740145e-01
   114    5.909861846601e-01
   115   -8.072317808591e-01
   116    4.399411292625e-01
   117   -8.888676948877e-02
   118    2.103965564333e-01
   119   -1.632250433189e-01
   120    1.086747814198e-01
   121    1.598989175901e-01
   122    3.955700919656e-01
   123   -7.430040339897e-02
   124    2.141345361459e-01
Sym=X
Ene= 32.640743
Spin=Beta 
Occup=0
     1    6.872278611916e-01
     2   -8.488716531742e-01
     3    7.633214898200e-01
     4   -5.940361129310e-01
     5    1.630295059966e-01
     6    4.702058433632e-02
     7   -1.946411648400e-04
     8    4.835241282289e-02
     9    1.653885715023e-03
    10    4.562535749246e-03
    11   -2.098490673475e-02
    12    1.316664824102e-02
    13   -1.656021664486e-03
    14    1.926418205251e-02
    15    8.685379980998e-03
    16    3.449622578118e-02
    17    8.005169835004e-05
    18    1.818440731591e-02
    19    5.569891967579e-04
    20   -1.903093352137e-02
    21   -3.527050468729e-02
    22   -6.890465917815e-04
    23   -1.105786136715e-02
    24    4.740972344957e-03
    25   -1.105738594126e-03
    26   -6.268802852326e-03
    27   -8.743446795955e-03
    28   -2.839624253361e-03
    29    9.520391789235e-03
    30   -7.358415721110e-06
    31   -7.245464155748e-03
    32    7.492386970724e-01
    33   -9.259381694189e-01
    34    8.651471271828e-01
    35   -7.573965287773e-01
    36    2.247138191696e-01
    37   -6.296819396596e-02
    38   -3.649840948588e-02
    39    2.711641530936e-02
    40    6.471757045653e-02
    41    3.543592383142e-02
    42   -3.214002692125e-02
    43   -2.894710694646e-02
    44   -1.648657670814e-02
    45    1.326276508088e-02
    46   -1.332176716696e-02
    47   -1.924211231071e-02
    48   -1.135349111645e-02
    49    1.525050540168e-02
    50    2.685394090917e-02
    51    1.766307461690e-02
    52    3.252564190148e-02
    53    1.704323154657e-02
    54   -2.278703751829e-02
    55   -3.889007815838e-02
    56    7.972755951741e-03
    57    7.536735846090e-03
    58   -1.090003055299e-02
    59    4.092201202413e-03
    60   -3.389084176502e-03
    61    4.770058937623e-03
    62    5.854089278866e-03
    63    6.624069903051e-01
    64   -8.180745814512e-01
    65    7.227099493643e-01
    66   -5.264196201859e-01
    67    1.435719892892e-01
    68    2.100441367833e-02
    69   -3.039467197802e-02
    70   -5.193994617639e-02
    71    1.458736049901e-02
    72    2.015107127146e-03
    73   -1.344322591681e-02
    74    3.899185252751e-03
    75   -1.227984075963e-02
    76   -1.593366888415e-02
    77    1.971383591159e-02
    78   -1.985210218263e-02
    79    2.599945938103e-02
    80   -2.839844348372e-03
    81   -1.081070790799e-02
    82   -1.570863442473e-02
    83    8.514063714512e-03
    84   -2.432413384901e-02
    85    8.068611626974e-03
    86    1.010013032435e-02
    87    6.281113998355e-04
    88    2.052425372020e-03
    89    7.876496796989e-03
    90    5.577349950419e-03
    91   -1.799521397644e-03
    92    8.246391904128e-03
    93   -7.891885073425e-03
    94    6.816419779559e-01
    95   -8.419032288152e-01
    96    7.538266669942e-01
    97   -5.780225523565e-01
    98    1.576803670081e-01
    99   -1.629781308521e-02
   100    6.264670715280e-02
   101   -1.521923130835e-02
   102    1.467518128178e-02
   103   -5.097759421765e-03
   104   -6.760316919341e-03
   105   -9.160514085495e-03
   106    2.016643443575e-02
   107   -3.083281186600e-03
   108   -1.684146513784e-02
   109    3.629683589139e-03
   110   -1.616364400346e-02
   111   -2.889485361327e-02
   112   -1.418885753546e-02
   113    1.505288558053e-02
   114   -5.034543306592e-03
   115    8.332515670771e-03
   116    2.640720503031e-02
   117    2.287214373854e-02
   118   -8.782691222318e-03
   119    7.897842791071e-03
   120    2.082102567071e-03
   121    4.281693950404e-03
   122    3.987951977463e-03
   123   -8.115653273627e-03
   124    2.257304861280e-03
Sym=X
Ene= 32.875732
Spin=Beta 
Occup=0
     1    9.440950502754e-02
     2   -1.182137379275e-01
     3    1.783494297325e-01
     4   -3.315070721266e-01
     5    1.272106946267e-01
     6    5.549921056914e-03
     7   -6.751921891772e-03
     8    2.004572565219e-02
     9    9.889939746778e-02
    10    1.785534533750e-01
    11   -3.170737579221e-01
    12   -5.266519512348e-02
    13   -6.099895215065e-02
    14    9.216587927317e-02
    15   -2.351668003123e-02
    16   -4.398939409454e-03
    17    5.405630941139e-03
    18    1.934312447353e-02
    19    2.004142167362e-02
    20   -1.544418139450e-01
    21   -6.201596132754e-02
    22    3.445577330831e-02
    23    1.013151102012e-01
    24    1.248902971283e-01
    25   -1.866079508420e-02
    26   -3.738169255748e-02
    27   -1.057525572028e-02
    28    1.309347860753e-02
    29    2.489890221713e-02
    30    2.613690768172e-02
    31    2.894274563903e-02
    32    1.060087193754e+00
    33   -1.326532160567e+00
    34    1.820580204747e+00
    35   -2.956239948193e+00
    36    1.185170405994e+00
    37   -1.522603338395e-01
    38   -9.070709840341e-02
    39    6.963754332003e-02
    40    9.273521701281e-01
    41    6.128643529329e-01
    42   -5.510061432911e-01
    43   -1.916731881942e-01
    44   -1.370175363476e-01
    45    1.355956202832e-01
    46   -8.196222572211e-03
    47    5.683346167467e-03
    48    2.204880809191e-03
    49    1.393187737334e-02
    50    9.195198562701e-03
    51    1.001743187490e-01
    52    2.579738776735e-01
    53    1.420286215756e-01
    54   -8.999447485138e-02
    55   -2.480828970291e-01
    56    3.385438498306e-02
    57    2.233510219596e-02
    58   -2.242832327968e-02
    59   -2.860352278478e-03
    60   -2.527279353904e-02
    61   -2.324258834082e-03
    62    1.217323429933e-02
    63   -6.125055703468e-01
    64    7.660674307339e-01
    65   -1.028554265302e+00
    66    1.635322411701e+00
    67   -6.500377346067e-01
    68   -4.060333658876e-02
    69    4.139420625564e-02
    70    8.993070774499e-02
    71    3.508800550070e-01
    72   -5.224852332143e-02
    73   -6.399236972600e-01
    74   -9.372522515564e-02
    75   -2.119089354863e-02
    76    1.520695533526e-01
    77    6.972766631577e-03
    78   -1.166979059865e-02
    79   -1.781367697278e-02
    80    2.218624789608e-02
    81    1.322550251671e-02
    82    1.731825679706e-01
    83   -1.982937462728e-01
    84    6.785773525928e-02
    85    1.117877590216e-01
    86    6.846044651941e-03
    87   -9.462374626340e-03
    88    3.107088315095e-02
    89   -1.955310349858e-02
    90   -4.571923761411e-02
    91   -3.438399459118e-03
    92    1.524310616660e-02
    93    6.156435947762e-04
    94   -6.643966407752e-01
    95    8.309704639425e-01
    96   -1.115847806081e+00
    97    1.770802071324e+00
    98   -6.955304039807e-01
    99    1.984450425601e-02
   100   -1.096027851795e-01
   101    3.365982628044e-02
   102    5.539224342053e-02
   103    6.891949119665e-01
   104   -3.609220805598e-01
   105   -4.367772240738e-02
   106   -1.490745834806e-01
   107    1.025979053285e-01
   108    3.613731805339e-03
   109   -2.567301255185e-03
   110   -1.778803925204e-02
   111    5.239781700938e-03
   112    2.758087257743e-02
   113   -1.001908396545e-01
   114    1.258797675709e-02
   115   -2.195587481891e-01
   116   -1.759222709908e-01
   117    5.563184986735e-02
   118    4.196328250557e-02
   119   -1.555815736936e-02
   120   -6.426788429701e-03
   121    2.821015434592e-02
   122   -7.028570638369e-03
   123   -2.459051803243e-02
   124   -1.414156044525e-02
Sym=X
Ene= 32.883363
Spin=Beta 
Occup=0
     1    1.039279960741e+00
     2   -1.300442032156e+00
     3    1.770488373736e+00
     4   -2.855335954054e+00
     5    1.143939029170e+00
     6    1.296342579221e-01
     7    5.530144025185e-03
     8    1.306267298390e-01
     9   -7.847463409138e-01
    10   -1.681273669259e-01
    11   -8.825145378032e-01
    12    1.646072744750e-01
    13    5.941456527459e-02
    14    1.997226829287e-01
    15   -6.314898041283e-03
    16    1.324414734733e-02
    17   -1.383219567735e-02
    18    4.867254492337e-03
    19   -1.066192828163e-02
    20   -1.455952554505e-01
    21   -3.103037294425e-01
    22   -8.522306388251e-02
    23   -1.694666430791e-01
    24   -6.327523955044e-02
    25   -1.022242694492e-02
    26   -2.298177193266e-02
    27   -2.965447560167e-02
    28   -2.150996788281e-02
    29   -2.069893442808e-03
    30   -1.457047396539e-02
    31   -2.929744636310e-02
    32   -4.289884547301e-01
    33    5.369405075858e-01
    34   -7.317689069325e-01
    35    1.169605552678e+00
    36   -4.733889971268e-01
    37    6.512587669453e-02
    38    3.978971202949e-02
    39   -1.569066590018e-02
    40   -4.524610358362e-01
    41   -3.350455131167e-01
    42   -1.313390293682e-01
    43    1.086243743587e-01
    44    8.931482769060e-02
    45    6.645106173866e-02
    46   -1.439896260612e-02
    47    3.078345607814e-02
    48    3.459019391129e-03
    49    1.678201688809e-03
    50    7.980471831291e-03
    51   -1.501724159884e-01
    52    9.927019228318e-02
    53   -3.060069521445e-02
    54    8.339135031671e-02
    55    1.723323433066e-01
    56    7.483102871811e-03
    57    3.605887560918e-02
    58    1.794853445537e-02
    59   -3.753431207236e-02
    60   -3.586030666576e-03
    61   -6.686714671900e-03
    62   -2.969759199174e-02
    63   -8.023182148245e-01
    64    1.003926789486e+00
    65   -1.372077516944e+00
    66    2.230611834522e+00
    67   -8.931131991454e-01
    68   -4.054345115383e-02
    69    6.923940870509e-02
    70    1.175804079117e-01
    71    6.344673814528e-02
    72   -4.936546115123e-01
    73   -8.232401912474e-01
    74    1.987979212967e-02
    75    1.150129678100e-01
    76    1.887161806978e-01
    77    7.908866256035e-03
    78    2.749407309473e-02
    79    2.592030837749e-03
    80   -6.893674154404e-03
    81    6.282309027366e-03
    82    2.167381616504e-01
    83    6.687496683702e-04
    84    2.470171393996e-01
    85   -7.283861911770e-02
    86   -6.032072137074e-02
    87   -2.402949300183e-02
    88   -2.162145120809e-02
    89   -4.041328601680e-02
    90    1.039759962056e-02
    91    1.467918958583e-03
    92   -1.931302015383e-02
    93    1.405232432550e-02
    94    2.031710712831e-01
    95   -2.541989412628e-01
    96    3.445258734306e-01
    97   -5.527257014075e-01
    98    2.246818182794e-01
    99   -2.353799041337e-03
   100    3.752967494828e-02
   101    8.971078241966e-04
   102   -1.262908281034e-01
   103   -3.267179701403e-01
   104   -2.186152916689e-01
   105    5.172755255989e-02
   106    8.764375998678e-02
   107    8.219099638931e-02
   108    7.755930875360e-03
   109    2.213302252464e-02
   110   -2.240495653948e-02
   111    1.369059354509e-02
   112   -1.250211698521e-02
   113    8.427469040872e-02
   114    1.274899349303e-01
   115   -1.036566253058e-01
   116    1.468447765622e-01
   117   -4.162432584283e-02
   118    1.752082853266e-02
   119   -6.457267657860e-03
   120    2.306236511297e-02
   121    8.595105086111e-03
   122    4.784868180071e-02
   123    1.855708932051e-03
   124    2.854766952965e-02
Sym=X
Ene= 32.889828
Spin=Beta 
Occup=0
     1   -6.203086822328e-01
     2    7.763625385967e-01
     3   -1.052502408031e+00
     4    1.678207529620e+00
     5   -6.766614663013e-01
     6   -8.215052853972e-02
     7    8.136632319966e-03
     8   -7.346663611795e-02
     9    6.081240823389e-01
    10   -2.496650254307e-01
    11    3.607674999401e-01
    12   -1.527503407953e-01
    13    8.839158909508e-02
    14   -6.364336164899e-02
    15   -2.107267980067e-02
    16   -3.035663574598e-03
    17   -2.215719987725e-02
    18   -9.044589981805e-04
    19   -1.426054113511e-02
    20   -6.209892983661e-02
    21    2.163693422000e-01
    22   -1.340065606727e-01
    23    1.113840147594e-01
    24   -8.620891507014e-02
    25   -3.513905777501e-02
    26    5.762614557700e-05
    27   -1.582443660786e-02
    28    1.667015128572e-02
    29   -4.330718011463e-02
    30    1.472559444788e-03
    31    6.901560799971e-04
    32    2.778853020655e-01
    33   -3.479210145174e-01
    34    4.784149200139e-01
    35   -7.729881904191e-01
    36    3.219541175390e-01
    37   -4.709771515224e-02
    38   -1.391076354352e-02
    39    1.586029647640e-02
    40    4.378141940515e-01
    41   -1.357422558678e-01
    42   -8.181523026581e-02
    43   -1.238857770535e-01
    44    6.723543192900e-02
    45    1.630977002094e-02
    46   -7.544335160240e-03
    47    1.294492421875e-03
    48   -1.677060197284e-02
    49   -2.965629931558e-02
    50    1.141749569275e-02
    51   -6.708629972264e-03
    52    6.480696918957e-02
    53   -6.974605314810e-02
    54   -2.266913985500e-01
    55   -1.119160826271e-02
    56   -1.123967734299e-02
    57    9.129217685235e-03
    58   -9.405553414030e-04
    59   -2.567445878603e-02
    60    1.785382879530e-02
    61    4.638549152028e-02
    62    2.601395363177e-02
    63   -6.989506872193e-01
    64    8.747579468858e-01
    65   -1.188110463266e+00
    66    1.905205863663e+00
    67   -7.753828642201e-01
    68   -4.785087353735e-02
    69    6.362349048957e-02
    70    9.511408389005e-02
    71    4.458245299757e-01
    72   -5.221669378913e-01
    73   -4.689696454033e-01
    74   -1.246868020162e-01
    75    1.366151988061e-01
    76    8.604919080193e-02
    77   -2.753121223456e-02
    78   -9.244513466518e-03
    79   -5.062522643464e-03
    80   -8.253391270519e-03
    81   -1.088910813872e-02
    82   -1.872621781436e-02
    83   -2.000437613355e-01
    84    1.711183016166e-01
    85   -7.904639772064e-02
    86   -1.503143050859e-01
    87    3.322675698121e-02
    88    1.646518813435e-02
    89    3.514797404460e-03
    90   -1.015807457407e-03
    91    3.052176186227e-02
    92   -3.108298689417e-02
    93    1.690200165081e-02
    94    9.993750808599e-01
    95   -1.250814418836e+00
    96    1.710494311326e+00
    97   -2.767501408120e+00
    98    1.118024413015e+00
    99   -4.841305527030e-02
   100    1.669912835852e-01
   101   -3.940537446267e-02
   102    4.505943117614e-01
   103   -1.051640270868e+00
   104    2.009379722481e-01
   105   -1.239300509391e-01
   106    2.287562506745e-01
   107   -3.548412994677e-02
   108   -6.375021562822e-03
   109   -4.278550805009e-03
   110   -1.335134607591e-02
   111   -1.205230486182e-02
   112    1.306745665508e-02
   113    1.433496549390e-01
   114   -6.828720149660e-02
   115    8.402299943019e-02
   116    2.393669523848e-01
   117    2.481936683665e-01
   118   -1.637746936359e-02
   119    1.315010588038e-02
   120    1.023893131510e-02
   121    1.486193645613e-02
   122   -5.863941311588e-03
   123   -4.768438736604e-02
   124    7.319417984829e-03
[5D7F]

======= END OF MOLDEN-FORMATTED INPUT FILE =======


        *************************************************************
        *                                                           *
        *  Thank you very much for using Q-Chem.  Have a nice day.  *
        *                                                           *
        *************************************************************


