[Molden Format]
[Atoms] (Angs)
 Ca      1   20      0.00000000      0.00000000      0.00000000
[GTO]
1    0
S    6    1.000000
   1.77605000E+05    6.09629600E-04 
   2.66269800E+04    4.72551000E-03 
   6.06512000E+03    2.45076800E-02 
   1.72419000E+03    9.85381800E-02 
   5.72260800E+02    3.02465700E-01 
   1.86641300E+02    6.69557200E-01 
S    3    1.000000
   2.74053900E+02    8.88337600E-02 
   7.77284100E+01    6.12035900E-01 
   3.26673100E+01    3.54844200E-01 
S    1    1.000000
   9.49180200E+00    1.00000000E+00 
S    1    1.000000
   3.90764900E+00    1.00000000E+00 
S    1    1.000000
   1.04748400E+00    1.00000000E+00 
S    1    1.000000
   4.27538000E-01    1.00000000E+00 
S    1    1.000000
   1.37616000E-01    1.00000000E+00 
S    1    1.000000
   4.42960000E-02    1.00000000E+00 
P    6    1.000000
   4.98232100E+03    4.23991900E-04 
   1.18291000E+03    3.70921000E-03 
   3.85140400E+02    2.05840800E-02 
   1.46920500E+02    8.51820400E-02 
   6.12771800E+01    2.79245400E-01 
   2.67542900E+01    7.01846100E-01 
P    2    1.000000
   1.17982300E+01    5.48842600E-01 
   5.22473700E+00    5.00130300E-01 
P    1    1.000000
   2.23740700E+00    1.00000000E+00 
P    1    1.000000
   9.16006000E-01    1.00000000E+00 
P    1    1.000000
   3.60013000E-01    1.00000000E+00 
P    1    1.000000
   8.47740000E-02    1.00000000E+00 
P    1    1.000000
   3.06280000E-02    1.00000000E+00 
D    3    1.000000
   1.73791200E+01    5.98184800E-02 
   4.62232500E+00    3.05597900E-01 
   1.49476900E+00    7.72443700E-01 
D    1    1.000000
   4.87802000E-01    1.00000000E+00 
D    1    1.000000
   1.46280000E-01    1.00000000E+00 
SP   1    1.000000
   1.50000000E-02    1.00000000E+00   1.00000000E+00 
D    1    1.000000
   2.00000000E-01    1.00000000E+00 
D    1    1.000000
   5.00000000E-02    1.00000000E+00 
D    1    1.000000
   1.25000000E-02    1.00000000E+00 
F    1    1.000000
   2.40000000E+00    1.00000000E+00 
F    1    1.000000
   6.00000000E-01    1.00000000E+00 
D    1    1.000000
   1.60000000E+01    1.00000000E+00 
F    1    1.000000
   1.90000000E+01    1.00000000E+00 

[MO]
Sym=X
Ene= -149.363097
Spin=Alpha
Occup=1
     1    3.943574877632e-01
     2    6.632579281831e-01
     3    2.063356117828e-02
     4   -4.663226014633e-03
     5    1.822079329152e-03
     6   -1.202101899429e-03
     7    5.188666334085e-04
     8   -2.362005100318e-04
     9   -1.068613290799e-16
    10    3.130203875236e-16
    11   -2.239240536997e-16
    12    5.322710224026e-17
    13   -2.097072565330e-16
    14    1.202101744496e-15
    15   -1.874920864825e-16
    16    5.927020129901e-16
    17   -1.165316250529e-15
    18    1.907368279878e-16
    19   -3.283293734295e-16
    20    3.335062115934e-16
    21   -8.386748197024e-17
    22   -1.336590539267e-16
    23    9.954153650726e-17
    24    2.105256891724e-17
    25    4.352248836268e-16
    26    1.978707047331e-16
    27   -1.166154683427e-17
    28   -3.303327105679e-16
    29   -7.447348513706e-16
    30   -8.919847998516e-16
    31    6.154126683860e-16
    32   -1.573111983392e-16
    33    3.440494799851e-16
    34   -9.712426114770e-16
    35    4.616232542635e-15
    36   -1.760587668552e-15
    37    1.419483380801e-15
    38    1.103710831486e-16
    39    2.613500880611e-15
    40    2.796700637285e-14
    41   -3.080724514214e-15
    42    5.358766333309e-15
    43    5.521348382067e-15
    44    6.964902096698e-15
    45    7.479265557802e-05
    46    2.939778245585e-18
    47    3.651894761260e-16
    48    6.898894017267e-16
    49   -2.724923790993e-14
    50    3.751061417921e-15
    51   -5.622763681328e-15
    52   -4.556745329634e-15
    53   -8.099738369101e-15
    54   -5.430398822216e-15
    55    1.344034543929e-16
    56   -8.271279007936e-16
    57   -1.562059028012e-15
    58   -1.116089212904e-15
    59    1.518476766224e-15
    60    4.908581302920e-17
    61    8.634761737758e-17
    62    5.442188927892e-16
    63    2.958201237035e-16
    64   -7.660212795861e-19
    65    2.249220160284e-17
    66   -1.360617335155e-16
    67    6.559649319101e-19
    68   -4.022575916372e-16
    69   -1.286726100207e-16
    70   -5.293528053705e-17
    71    1.170529873088e-17
    72    2.153217507581e-17
    73    1.671018520642e-16
    74    2.063248396370e-17
    75   -3.062614296015e-16
    76    7.256993233532e-17
    77    1.541471079165e-16
    78    5.718302734450e-16
    79   -1.473213769913e-16
    80   -2.193404989102e-17
    81   -2.316842634727e-16
    82    3.429302553615e-16
    83   -2.723593603784e-16
    84   -8.287155260494e-17
    85   -2.093538322725e-16
    86   -3.225214873996e-17
    87   -3.096920884070e-18
    88    9.747938927836e-19
    89    3.230233235128e-16
Sym=X
Ene= -16.823162
Spin=Alpha
Occup=1
     1   -1.175374115557e-01
     2   -3.487196127252e-01
     3    5.190411117925e-01
     4    5.883234450889e-01
     5    5.807931986637e-02
     6   -1.635204517969e-02
     7    6.317012519665e-03
     8   -2.726716190921e-03
     9    2.914703801309e-17
    10   -6.312534276683e-16
    11   -4.901100385372e-16
    12    3.446195474801e-17
    13   -7.943504921678e-16
    14   -7.347836306963e-16
    15   -3.021487181304e-16
    16   -4.616101113025e-16
    17   -1.972666383461e-16
    18   -4.496506772063e-16
    19    1.431339190877e-16
    20    1.285742125977e-15
    21    2.549059844970e-16
    22    5.517975295249e-16
    23   -2.940510140846e-16
    24   -9.665681645044e-16
    25   -7.753535287615e-16
    26   -4.983392127835e-16
    27    1.018666457499e-15
    28    8.568490589445e-16
    29    1.188665856106e-15
    30   -9.173053928244e-14
    31   -1.539816120984e-16
    32   -5.916743859257e-16
    33   -1.710726824029e-14
    34   -1.178094963603e-16
    35    8.647308098395e-14
    36    3.813348831634e-16
    37    1.468711897994e-15
    38    1.592078170836e-14
    39   -1.484657698321e-16
    40   -2.004486506373e-14
    41    7.066142994579e-16
    42    4.044481138709e-15
    43   -5.678463567089e-15
    44   -7.638238028895e-16
    45    8.534198135740e-04
    46   -5.656858368447e-16
    47   -8.114899174766e-16
    48   -8.992492616873e-16
    49   -7.102490485220e-14
    50   -8.798313024396e-16
    51   -4.842862146375e-15
    52   -1.172515204818e-14
    53    8.317068058493e-16
    54    4.733564828614e-14
    55    7.539240617506e-17
    56   -6.052829292487e-16
    57    9.699479015317e-15
    58    3.910791810612e-16
    59   -3.855116987926e-14
    60    8.732358403873e-19
    61    1.941367012208e-16
    62   -7.617549118626e-15
    63   -1.720226112696e-16
    64    2.549313337158e-16
    65   -1.392225436756e-17
    66   -1.894633965759e-16
    67    3.595266756914e-17
    68   -5.086893057050e-16
    69    3.233356131326e-17
    70   -2.153682639655e-17
    71   -2.839580686133e-16
    72   -4.617718493886e-18
    73   -1.598438241444e-17
    74   -2.443227772944e-17
    75   -3.863923322052e-16
    76   -5.998520118595e-18
    77   -2.122011746594e-16
    78   -6.100957177742e-14
    79   -1.829594679714e-17
    80    7.437246531235e-17
    81   -1.155635556401e-14
    82   -5.840068582055e-17
    83    1.123249985932e-16
    84    3.189822117512e-17
    85    1.106570048632e-16
    86   -1.936528155239e-17
    87   -4.205007789303e-17
    88   -1.188978903286e-18
    89    4.413507379720e-17
Sym=X
Ene= -13.630283
Spin=Alpha
Occup=1
     1   -6.399099828545e-17
     2   -2.205158850238e-16
     3    8.143607423129e-19
     4    1.146413109145e-15
     5   -2.020035208026e-15
     6    1.588915989152e-15
     7    1.387339341951e-15
     8   -1.344664540755e-15
     9   -2.709649653353e-17
    10   -2.505743117086e-17
    11    3.251280495257e-01
    12   -5.317250014642e-17
    13   -1.009671189122e-15
    14    7.140087116681e-01
    15   -2.138942508811e-18
    16   -3.585716100638e-16
    17    9.494294639823e-02
    18   -1.157769487356e-17
    19    2.729383330953e-15
    20    3.740023301525e-04
    21    4.695831223500e-19
    22   -2.422094347049e-15
    23    1.087390567547e-03
    24   -1.297003685724e-17
    25    3.391781059858e-15
    26   -3.935091101754e-04
    27    1.315627670720e-16
    28   -4.552209612745e-15
    29    2.796571972177e-04
    30    2.308312896600e-17
    31    3.295285888483e-16
    32    5.400521998653e-16
    33   -3.563048490060e-16
    34    4.895218712392e-16
    35   -2.052277529921e-15
    36   -2.402035953003e-15
    37    3.701761938659e-16
    38    1.169850792107e-15
    39   -6.297469110894e-16
    40   -1.308703348005e-14
    41   -7.772238024167e-15
    42    8.412588729046e-15
    43    2.596932107875e-15
    44    4.439958723666e-15
    45    7.996949167309e-17
    46   -1.204088333240e-16
    47    3.014870244452e-15
    48   -1.269999611168e-04
    49    1.279913623405e-14
    50    8.761976543297e-15
    51   -7.671577133512e-15
    52   -2.826222919510e-15
    53   -2.823614240103e-15
    54    3.129951195890e-15
    55    1.071936305810e-15
    56   -1.877859499267e-15
    57   -9.891589322757e-16
    58   -2.164221063134e-15
    59   -1.024873702003e-15
    60   -1.184553332139e-16
    61    5.949148267317e-16
    62    3.072280445673e-16
    63    7.672482807645e-16
    64   -1.806661893792e-14
    65    1.155274016347e-18
    66   -6.694960414034e-17
    67   -2.618279925049e-15
    68   -5.025551411761e-17
    69    1.235509246669e-18
    70   -2.321761843235e-16
    71    1.959514691912e-14
    72   -4.246624249205e-17
    73    2.603798303882e-16
    74    2.836475353273e-15
    75    1.795925316582e-16
    76    4.573072610183e-19
    77   -1.775864651707e-16
    78    1.225233693143e-16
    79    4.701324252593e-17
    80    5.871185199601e-17
    81   -6.786372251973e-17
    82   -3.251523667928e-17
    83   -4.318876868088e-14
    84    1.198276596222e-18
    85    6.472547052120e-17
    86   -6.451080834910e-15
    87    8.508027747903e-18
    88    5.331580613505e-20
    89   -4.396866675535e-17
Sym=X
Ene= -13.630283
Spin=Alpha
Occup=1
     1   -5.960543979655e-17
     2   -8.829525199281e-16
     3    9.463839572587e-16
     4    5.282774366208e-15
     5   -1.885288963695e-14
     6    2.212117699545e-14
     7   -1.214710295171e-14
     8    5.278122074692e-15
     9    3.251280495257e-01
    10    1.329760097873e-16
    11    2.734499221071e-15
    12    7.140087116681e-01
    13    4.706634952005e-16
    14   -3.490289638611e-15
    15    9.494294639834e-02
    16   -6.526242853620e-18
    17    3.195126857053e-15
    18    3.740023299298e-04
    19    3.618993793324e-17
    20   -2.189054214996e-15
    21    1.087390567651e-03
    22   -1.261079179602e-17
    23    9.410703126261e-16
    24   -3.935091101896e-04
    25    9.751454947664e-19
    26   -3.592416204473e-16
    27    2.796571972193e-04
    28    9.518143774647e-18
    29    2.703628094078e-16
    30   -1.497005689058e-16
    31    8.198658739573e-16
    32    1.505218941448e-16
    33    1.584705753236e-17
    34    1.565955934218e-15
    35    1.077497122864e-16
    36   -9.250025844592e-16
    37   -3.536902999548e-16
    38    3.149204722645e-15
    39    1.209480274708e-15
    40    1.874840248451e-15
    41   -1.342634361129e-14
    42   -3.571179300057e-15
    43    1.918307064055e-14
    44   -1.147063829567e-14
    45   -1.647419549041e-15
    46   -1.269999611171e-04
    47   -8.288971584885e-18
    48   -1.229232421782e-16
    49   -1.692619185602e-15
    50    1.169169612859e-14
    51    3.281260512419e-15
    52   -1.960517315506e-14
    53    7.217256138799e-15
    54   -3.561122850946e-16
    55    3.085633265495e-15
    56    7.610837576421e-16
    57   -3.564363013830e-15
    58    3.391839457300e-15
    59    2.358480345808e-16
    60   -5.674017617477e-16
    61   -1.763614850962e-16
    62    7.707429168076e-16
    63   -7.559481598078e-16
    64    1.534786174869e-16
    65   -1.456569642430e-14
    66   -6.928151284994e-17
    67    1.296123889985e-16
    68   -4.846543281246e-17
    69   -2.435921091314e-15
    70    6.617360571093e-17
    71   -4.626816653273e-17
    72    1.567305912376e-14
    73    6.118477308716e-17
    74    1.137004360332e-16
    75    5.652317779496e-17
    76    2.549417505560e-15
    77    1.055098305563e-16
    78    1.369387946481e-16
    79   -1.058108157256e-16
    80   -2.646488236539e-16
    81    1.025277427718e-16
    82   -1.038550908223e-16
    83    1.181531810731e-16
    84   -3.452777055111e-14
    85    1.107715168080e-17
    86    6.404124673163e-17
    87    8.347313233399e-17
    88   -7.278849530681e-15
    89    6.835273890508e-17
Sym=X
Ene= -13.630283
Spin=Alpha
Occup=1
     1   -1.244035540654e-16
     2   -3.297922867229e-16
     3    7.272331245577e-17
     4    1.189607476272e-15
     5    4.248561678496e-16
     6   -1.869618241688e-15
     7    4.143297653133e-15
     8   -4.590278282254e-15
     9   -2.426061062008e-16
    10    3.251280495256e-01
    11   -2.220524853534e-16
    12   -5.327370058434e-16
    13    7.140087116682e-01
    14    3.682371408712e-16
    15   -6.938889328936e-17
    16    9.494294639836e-02
    17   -1.857589341584e-15
    18   -3.612906627112e-18
    19    3.740023298802e-04
    20    2.201820267213e-15
    21    2.724885804335e-18
    22    1.087390567668e-03
    23    1.666249538049e-16
    24   -4.551810867327e-18
    25   -3.935091101821e-04
    26   -1.706044903425e-15
    27   -5.424391168736e-18
    28    2.796571972004e-04
    29    4.388741584277e-15
    30   -1.909144567235e-16
    31    4.296884515950e-16
    32    7.501014100349e-16
    33   -4.091385125862e-16
    34    2.727751957375e-15
    35    4.530006388005e-17
    36   -5.399894807116e-16
    37    1.486284455527e-15
    38    8.376816523973e-16
    39   -8.220255153021e-15
    40   -8.939266841511e-16
    41    1.461142204959e-15
    42    1.144479290179e-14
    43    2.318801599101e-15
    44   -1.783065129282e-14
    45    2.299716647659e-15
    46    7.192019074863e-18
    47   -1.269999611036e-04
    48   -3.295246165568e-15
    49    1.093664697297e-15
    50   -1.146213139254e-15
    51   -1.154479921210e-14
    52   -2.496005659520e-15
    53    2.217704201002e-14
    54   -1.369431942062e-16
    55   -6.771804592076e-16
    56   -1.910986430307e-15
    57   -5.669180443719e-16
    58    1.315858519323e-15
    59   -4.206961793423e-17
    60    3.619513336227e-16
    61   -2.065758626024e-17
    62    3.905509839425e-16
    63    3.838436126548e-16
    64    1.579192967091e-16
    65    1.601953726742e-17
    66   -1.613116105386e-14
    67   -5.474012207420e-17
    68   -2.470458330593e-16
    69   -1.560938070239e-19
    70   -3.585600702624e-15
    71   -8.167728956358e-17
    72   -3.479495835378e-17
    73    1.705152054062e-14
    74    1.779590931763e-17
    75    1.607871374629e-16
    76   -1.350659318297e-19
    77    4.048186476593e-15
    78    1.069365890025e-16
    79    1.355791514638e-17
    80   -1.867819452651e-16
    81   -9.208284455369e-18
    82   -4.350237794091e-16
    83    1.085091057857e-16
    84    7.163173636854e-18
    85   -3.765209987151e-14
    86    4.250291118777e-17
    87   -8.821342506034e-17
    88    2.223036748469e-19
    89   -7.908086075770e-15
Sym=X
Ene= -2.245753
Spin=Alpha
Occup=1
     1    4.039895672955e-02
     2    1.296797059232e-01
     3   -2.595783969387e-01
     4   -4.774657773065e-01
     5    5.707075123534e-01
     6    6.556181257966e-01
     7    2.199587605494e-02
     8    3.464615728983e-03
     9   -3.860901007351e-17
    10    1.755725097581e-17
    11   -3.588673821087e-16
    12   -2.667070157802e-16
    13    1.286998459785e-16
    14   -1.072659087623e-15
    15    2.419396775268e-16
    16   -3.656545629494e-16
    17    4.211006541799e-16
    18   -4.664621670788e-17
    19    3.476762795034e-16
    20    2.751361100090e-15
    21    1.373869062884e-15
    22   -7.787524852018e-16
    23   -1.185832740630e-16
    24   -1.293392319188e-15
    25    6.734494213577e-16
    26    2.020993201805e-15
    27    1.841482412663e-15
    28   -1.374519042484e-15
    29   -1.562309219448e-15
    30    1.953411081967e-12
    31   -4.421109325183e-17
    32    9.800295090980e-16
    33    3.760243128695e-13
    34    9.757207154852e-16
    35    3.112193803943e-12
    36    8.892004733769e-16
    37   -1.478529949417e-15
    38    6.004008569496e-13
    39   -2.525409033246e-15
    40    4.202564752826e-12
    41    2.444985036425e-16
    42   -3.511473958056e-15
    43    8.099175210104e-13
    44   -5.985530714129e-15
    45   -1.511705079500e-03
    46   -8.277830948876e-16
    47    1.351043766650e-15
    48    8.257930924188e-16
    49   -7.115953978124e-12
    50   -7.561197611372e-16
    51    4.510135288813e-15
    52   -1.371595557668e-12
    53    7.359895115837e-15
    54   -1.510992905953e-12
    55    2.644600771153e-16
    56    8.574858471015e-17
    57   -2.905668524693e-13
    58    4.249052437287e-16
    59    7.510382208360e-13
    60   -2.221468530200e-16
    61    9.319200085356e-17
    62    1.442466445409e-13
    63   -1.286145175020e-17
    64    1.394649749944e-16
    65    9.068633568689e-17
    66   -1.496182278392e-16
    67   -8.875083064080e-17
    68   -1.111337624169e-16
    69   -1.212341927726e-16
    70   -2.380964878696e-16
    71    2.375361442169e-16
    72   -6.473660340015e-17
    73   -1.985643780568e-16
    74   -1.251939436084e-16
    75   -6.547030885573e-16
    76    4.063280763293e-17
    77    1.277823068478e-15
    78    1.498769428620e-14
    79    9.087992387201e-17
    80    6.126429770369e-16
    81    3.552882506703e-15
    82    4.897197257517e-16
    83   -1.093482482992e-16
    84   -4.912003315499e-18
    85   -1.179773511930e-17
    86    1.197784463164e-16
    87    3.270716732521e-17
    88    7.483734257318e-18
    89   -2.530895144579e-16
Sym=X
Ene= -1.341326
Spin=Alpha
Occup=1
     1   -1.230055267028e-16
     2   -4.230053226287e-16
     3    1.053369341984e-15
     4    1.003438555431e-15
     5   -3.076119507769e-16
     6   -4.442270173787e-15
     7   -9.597922877481e-16
     8    5.834737281668e-15
     9    4.052997705376e-17
    10    3.090230440510e-16
    11   -1.114088952393e-01
    12    9.637690585649e-17
    13    6.865603992197e-16
    14   -2.667805268077e-01
    15   -8.456994245726e-17
    16   -4.618941491652e-16
    17    1.760419019763e-01
    18   -1.377864820002e-16
    19   -3.005343957441e-15
    20    5.594919271299e-01
    21   -2.136377386366e-16
    22    3.067547711128e-15
    23    3.987795134540e-01
    24    7.613852512623e-17
    25   -2.942869928889e-15
    26    3.577028397376e-02
    27   -3.273052391892e-16
    28    4.891984052632e-15
    29   -1.284947284802e-02
    30    1.440180002409e-15
    31   -1.054338791647e-16
    32   -1.896135949675e-15
    33    1.123048282994e-16
    34    4.507351743343e-18
    35    2.513536685160e-15
    36    2.004775784608e-15
    37   -1.602274665383e-15
    38   -9.329784629262e-16
    39    3.682800967858e-16
    40    9.586326114813e-15
    41    4.168744510744e-15
    42   -4.005643080593e-15
    43   -4.893598379290e-15
    44   -4.291605114284e-15
    45   -5.333662610776e-15
    46    2.375696978404e-16
    47   -2.422115347495e-15
    48    5.454847643023e-03
    49   -8.737177099536e-15
    50   -5.420186041193e-15
    51    3.910212017790e-15
    52    4.340497763075e-15
    53    3.278268872505e-15
    54   -1.573164242089e-15
    55   -1.757957699590e-16
    56    3.654540399864e-16
    57    2.218969626327e-15
    58    2.498873311038e-15
    59    4.953442065129e-16
    60   -1.006750642139e-16
    61    9.224918367848e-16
    62   -1.253859984261e-15
    63   -1.106581966489e-15
    64   -4.233381959714e-13
    65    9.403677297464e-19
    66    2.034703159024e-16
    67   -5.994427132539e-14
    68    2.232620374806e-16
    69    8.492192531450e-18
    70   -3.021624866014e-17
    71   -1.325180233979e-12
    72   -1.343157874099e-17
    73    3.142397749909e-17
    74   -1.903104800094e-13
    75   -2.708220266001e-16
    76   -3.332371334869e-18
    77   -1.632513459200e-16
    78   -4.569062244140e-17
    79    4.658860415061e-17
    80   -5.048992240145e-18
    81   -2.329925703263e-17
    82   -5.109966783395e-17
    83    1.328161271609e-14
    84    1.565504740861e-18
    85    1.928012945995e-17
    86    1.989034488814e-15
    87   -9.636814526019e-17
    88    5.873374708802e-20
    89   -2.264635967778e-17
Sym=X
Ene= -1.341326
Spin=Alpha
Occup=1
     1   -1.077559128844e-16
     2   -1.526574987249e-16
     3    5.301431099422e-16
     4   -1.765969865989e-17
     5    1.126540177236e-15
     6   -1.978986978223e-15
     7    2.576168928923e-16
     8   -3.608226740222e-16
     9   -1.114088952382e-01
    10   -3.908437324949e-17
    11   -1.833019093509e-17
    12   -2.667805268053e-01
    13   -9.850962326074e-17
    14   -4.500136849935e-17
    15    1.760419019753e-01
    16    6.703989135236e-17
    17    1.620494421822e-17
    18    5.594919271204e-01
    19    2.145548931511e-16
    20    1.427727479855e-16
    21    3.987795134541e-01
    22    1.036689436013e-16
    23   -4.381173225324e-18
    24    3.577028399915e-02
    25    1.234510444643e-16
    26    8.432012536401e-17
    27   -1.284947285373e-02
    28   -1.557116945503e-16
    29   -2.004737321394e-16
    30    3.773281158826e-16
    31    1.214519474168e-15
    32    1.364860382284e-17
    33   -5.615080830587e-16
    34   -2.109777030600e-16
    35   -4.447522726543e-16
    36    2.057137249374e-15
    37    4.943223310252e-18
    38    1.043164265331e-15
    39   -4.664909347541e-16
    40   -1.076139857740e-15
    41    2.174461326386e-15
    42   -4.412537734234e-17
    43    1.161446388181e-15
    44   -1.316021174068e-15
    45    2.094398788843e-16
    46    5.454847650301e-03
    47    8.353815420084e-17
    48    1.122710826939e-16
    49    1.267716941890e-15
    50   -2.247774716487e-15
    51    1.041369818600e-16
    52   -1.428879887723e-15
    53    1.311552431333e-15
    54    1.522703265509e-16
    55   -5.222744331091e-16
    56    3.841623801636e-17
    57   -2.410154941533e-17
    58    1.890223246444e-16
    59   -1.729200606751e-16
    60    1.338468227584e-16
    61   -1.201672076585e-17
    62   -1.499291938891e-16
    63    1.609532865240e-16
    64    1.075021672374e-16
    65   -3.219007337960e-13
    66    1.877805719064e-17
    67   -1.256296741942e-17
    68   -3.289274060734e-17
    69   -7.444449583452e-14
    70    1.023132979485e-16
    71   -1.034380840013e-16
    72   -1.026457694036e-12
    73    7.108909001483e-17
    74   -5.679095507644e-16
    75   -6.121038622387e-17
    76   -2.331711583449e-13
    77   -6.467838865227e-17
    78    1.582500291087e-16
    79   -1.451569104511e-16
    80   -7.427810391294e-17
    81   -3.891849742612e-16
    82    9.786598468904e-17
    83   -1.156008010321e-16
    84    1.094912836481e-14
    85    3.797799381592e-18
    86    1.087276796961e-17
    87    8.617170910335e-18
    88    2.244371414263e-15
    89    1.387325144515e-16
Sym=X
Ene= -1.341326
Spin=Alpha
Occup=1
     1   -1.181977947399e-17
     2   -4.864209567411e-17
     3    2.236774099730e-16
     4   -1.002220140287e-16
     5   -9.151397389691e-17
     6   -3.287239742956e-16
     7   -1.961700512688e-15
     8    8.669464290598e-15
     9    4.014983518757e-17
    10   -1.114088952380e-01
    11   -1.667586870962e-16
    12    9.751355350278e-17
    13   -2.667805268048e-01
    14   -3.718621910601e-16
    15   -7.413437228862e-17
    16    1.760419019751e-01
    17   -4.413875246438e-16
    18   -1.580541423247e-16
    19    5.594919271180e-01
    20    2.918075012115e-15
    21   -2.262758613191e-16
    22    3.987795134541e-01
    23   -3.175254762920e-15
    24    1.139442970447e-16
    25    3.577028400549e-02
    26    1.234450156287e-15
    27   -1.461376147286e-16
    28   -1.284947285514e-02
    29    5.750722789342e-16
    30   -2.840503425179e-15
    31    4.669417946933e-16
    32   -2.305775057931e-15
    33   -5.860935016759e-16
    34   -5.713262671805e-16
    35   -2.580200082802e-15
    36    3.259545581594e-16
    37   -1.260472327454e-15
    38   -1.990441325853e-16
    39    1.452018090543e-15
    40    5.543420605418e-15
    41   -5.620115386625e-15
    42    1.361700468423e-14
    43    2.069852789403e-15
    44    3.625539048387e-15
    45   -7.643840456749e-15
    46    7.042136195883e-17
    47    5.454847652114e-03
    48    4.510608918261e-17
    49   -5.559310521845e-15
    50    3.755094863261e-15
    51   -9.992476685895e-15
    52   -1.505219703633e-15
    53   -4.895041419430e-15
    54    4.191852512139e-16
    55    1.653419082181e-15
    56   -3.445332073447e-15
    57   -9.328208803511e-16
    58   -3.607413951318e-16
    59   -2.593600109552e-16
    60   -7.572446177924e-16
    61    3.859304533020e-16
    62   -1.495295550558e-16
    63    3.195143853156e-16
    64    9.106471665531e-18
    65   -1.510094751274e-17
    66   -3.628938670464e-13
    67    1.101359947936e-16
    68   -5.132651678183e-16
    69   -3.581247554919e-17
    70   -7.559939116858e-14
    71    2.160820384483e-16
    72    5.349564097438e-17
    73   -1.144780931273e-12
    74   -4.538614837054e-17
    75    2.457601652074e-16
    76    5.258382419881e-17
    77   -2.314127785001e-13
    78   -1.047581843081e-16
    79   -1.211676421499e-16
    80   -9.640388371244e-18
    81    4.058330098571e-17
    82    4.260946679448e-17
    83   -2.164593877575e-17
    84   -6.615544148649e-18
    85    1.190916533514e-14
    86   -4.184426387963e-17
    87    9.958389360879e-18
    88    5.885375334757e-19
    89    2.548942591119e-15
Sym=X
Ene= -0.195615
Spin=Alpha
Occup=1
     1   -9.621827383051e-03
     2   -3.133704836691e-02
     3    6.643069977158e-02
     4    1.220216587122e-01
     5   -1.649893406886e-01
     6   -4.065606558346e-01
     7    1.289362713544e-01
     8    9.117116030987e-01
     9   -2.902120655446e-17
    10   -2.503020879875e-17
    11    2.341758633393e-16
    12   -1.570036973652e-17
    13    4.885296373973e-17
    14    5.110703360779e-16
    15   -1.397834157563e-17
    16   -1.533009591506e-16
    17    2.881108036169e-17
    18    8.831654531260e-16
    19    5.638147393091e-16
    20   -2.782238207580e-15
    21   -1.204239791068e-15
    22   -7.461612126093e-16
    23    2.133378472344e-15
    24    9.666981506575e-16
    25    5.512111059471e-16
    26    1.087525636389e-15
    27    1.794245316926e-15
    28   -1.957043481368e-15
    29    3.027136337693e-15
    30   -1.170042399785e-10
    31   -2.293489336576e-16
    32    1.039404121256e-15
    33   -2.251001336583e-11
    34    8.103036237498e-16
    35   -9.385117432579e-11
    36   -7.529718328324e-16
    37   -6.437894446598e-16
    38   -1.808355841824e-11
    39    2.567015890426e-16
    40    4.398468107255e-10
    41   -4.000759983676e-15
    42   -1.942456673610e-15
    43    8.448313012328e-11
    44    2.277048300857e-15
    45    1.299539901552e-01
    46   -2.480582053581e-15
    47    6.016111673303e-16
    48    1.121509127756e-16
    49   -4.560918926061e-10
    50    3.937884043624e-15
    51    2.553483123006e-15
    52   -8.761955352363e-11
    53   -2.666094920104e-15
    54   -1.386934499916e-09
    55    2.234646551944e-15
    56   -1.910980921154e-16
    57   -2.668659927207e-10
    58   -1.301494312635e-15
    59   -1.033619507158e-09
    60    3.378474738667e-15
    61    1.801714626281e-15
    62   -1.989425273812e-10
    63    3.180337118513e-15
    64    1.523472531325e-17
    65   -4.215307254938e-18
    66   -1.131578557315e-16
    67    1.611120546249e-16
    68   -1.068314453860e-15
    69    5.541187362043e-18
    70    2.196017432671e-16
    71   -1.244315586576e-15
    72    1.820268925356e-16
    73    1.160624526663e-16
    74   -1.213513697679e-15
    75   -7.743685690617e-16
    76   -8.032013785010e-18
    77    1.561960277167e-15
    78    9.331397796859e-13
    79   -7.301233893677e-17
    80    7.365097906799e-17
    81    1.794259297321e-13
    82    1.985764183422e-16
    83    5.784248827769e-17
    84    2.654781266096e-18
    85    3.862983033380e-17
    86    7.025203788879e-18
    87   -8.595208129005e-17
    88    1.129066999143e-19
    89    2.974840338163e-17
Sym=X
Ene= 0.015140
Spin=Alpha
Occup=0
     1   -2.189306897203e-17
     2   -4.308872045695e-17
     3   -1.345520564550e-16
     4    1.122858111431e-15
     5   -3.760803701557e-15
     6    5.671226524951e-15
     7   -6.282649337491e-15
     8    1.132070800605e-14
     9   -3.560448375879e-17
    10   -2.911478185868e-16
    11    1.187327144941e-02
    12   -4.806947440188e-17
    13   -5.862706408387e-16
    14    2.883741338560e-02
    15   -1.280066611891e-16
    16    1.025252734874e-17
    17   -2.312148011714e-02
    18    7.725098746431e-16
    19    2.894340828782e-15
    20   -6.530235764857e-02
    21   -1.037159429173e-15
    22    6.229072596014e-16
    23   -7.352417179743e-02
    24    4.847530184905e-15
    25   -1.341841807069e-15
    26    2.278720937249e-01
    27   -1.801370867918e-14
    28   -3.425597492779e-14
    29   -8.568053343960e-02
    30   -1.023483930450e-16
    31    3.595558992091e-16
    32    9.292921816178e-16
    33   -1.205346958072e-15
    34    1.313804745028e-15
    35   -1.011561438372e-15
    36    4.884271089358e-16
    37    2.002879340654e-15
    38   -1.779760956572e-15
    39    1.222172514005e-15
    40   -1.608023712228e-14
    41    3.503417862758e-15
    42    1.788676419370e-14
    43   -4.171475902751e-15
    44   -2.516135792251e-15
    45   -1.346703826401e-14
    46    1.612531312260e-14
    47    3.439730496836e-14
    48    9.700685602575e-01
    49    1.048557244918e-14
    50   -2.535145269664e-15
    51   -1.178782827582e-14
    52    1.217336138761e-15
    53    3.743111838176e-15
    54    1.933803600302e-14
    55   -1.746387835159e-15