[Molden Format]
[Atoms] (AU)
N    1    7         0.982657589101       0.996830535097       0.968484643104
N    2    7        -0.982657589101      -0.987381904433       0.987381904433
N    3    7        -0.982657589101       0.977933273768      -0.977933273768
N    4    7         0.982657589101      -0.987381904433      -0.977933273768
[GTO]
  1 0
 s    8  1.00
    11420.0000000000         0.4212093071
     1712.0000000000         0.7848615221
      389.3000000000         1.3273975977
      110.0000000000         1.9989872282
       35.5700000000         2.4748758656
       12.5400000000         2.1060076679
        4.6440000000         0.8013747684
        0.5118000000        -0.0037531799
 s    8  1.00
    11420.0000000000        -0.1565041181
     1712.0000000000        -0.2934466844
      389.3000000000        -0.4992401207
      110.0000000000        -0.7752671946
       35.5700000000        -1.0288246585
       12.5400000000        -1.0842399649
        4.6440000000        -0.6722979466
        0.5118000000         0.4472128530
 s    1  1.00
        1.2930000000         0.8641895012
 s    1  1.00
        0.1787000000         0.1958860490
 p    3  1.00
       26.6300000000         3.4325416128
        5.9480000000         3.2969151869
        1.7420000000         2.3120245012
 p    1  1.00
        0.5550000000         0.6828201314
 p    1  1.00
        0.1725000000         0.1584624850
 d    1  1.00
        1.6540000000         3.9705127077
 d    1  1.00
        0.4690000000         0.4374837549
 f    1  1.00
        1.0930000000         1.7982489446

  2 0
 s    8  1.00
    11420.0000000000         0.4212093071
     1712.0000000000         0.7848615221
      389.3000000000         1.3273975977
      110.0000000000         1.9989872282
       35.5700000000         2.4748758656
       12.5400000000         2.1060076679
        4.6440000000         0.8013747684
        0.5118000000        -0.0037531799
 s    8  1.00
    11420.0000000000        -0.1565041181
     1712.0000000000        -0.2934466844
      389.3000000000        -0.4992401207
      110.0000000000        -0.7752671946
       35.5700000000        -1.0288246585
       12.5400000000        -1.0842399649
        4.6440000000        -0.6722979466
        0.5118000000         0.4472128530
 s    1  1.00
        1.2930000000         0.8641895012
 s    1  1.00
        0.1787000000         0.1958860490
 p    3  1.00
       26.6300000000         3.4325416128
        5.9480000000         3.2969151869
        1.7420000000         2.3120245012
 p    1  1.00
        0.5550000000         0.6828201314
 p    1  1.00
        0.1725000000         0.1584624850
 d    1  1.00
        1.6540000000         3.9705127077
 d    1  1.00
        0.4690000000         0.4374837549
 f    1  1.00
        1.0930000000         1.7982489446

  3 0
 s    8  1.00
    11420.0000000000         0.4212093071
     1712.0000000000         0.7848615221
      389.3000000000         1.3273975977
      110.0000000000         1.9989872282
       35.5700000000         2.4748758656
       12.5400000000         2.1060076679
        4.6440000000         0.8013747684
        0.5118000000        -0.0037531799
 s    8  1.00
    11420.0000000000        -0.1565041181
     1712.0000000000        -0.2934466844
      389.3000000000        -0.4992401207
      110.0000000000        -0.7752671946
       35.5700000000        -1.0288246585
       12.5400000000        -1.0842399649
        4.6440000000        -0.6722979466
        0.5118000000         0.4472128530
 s    1  1.00
        1.2930000000         0.8641895012
 s    1  1.00
        0.1787000000         0.1958860490
 p    3  1.00
       26.6300000000         3.4325416128
        5.9480000000         3.2969151869
        1.7420000000         2.3120245012
 p    1  1.00
        0.5550000000         0.6828201314
 p    1  1.00
        0.1725000000         0.1584624850
 d    1  1.00
        1.6540000000         3.9705127077
 d    1  1.00
        0.4690000000         0.4374837549
 f    1  1.00
        1.0930000000         1.7982489446

  4 0
 s    8  1.00
    11420.0000000000         0.4212093071
     1712.0000000000         0.7848615221
      389.3000000000         1.3273975977
      110.0000000000         1.9989872282
       35.5700000000         2.4748758656
       12.5400000000         2.1060076679
        4.6440000000         0.8013747684
        0.5118000000        -0.0037531799
 s    8  1.00
    11420.0000000000        -0.1565041181
     1712.0000000000        -0.2934466844
      389.3000000000        -0.4992401207
      110.0000000000        -0.7752671946
       35.5700000000        -1.0288246585
       12.5400000000        -1.0842399649
        4.6440000000        -0.6722979466
        0.5118000000         0.4472128530
 s    1  1.00
        1.2930000000         0.8641895012
 s    1  1.00
        0.1787000000         0.1958860490
 p    3  1.00
       26.6300000000         3.4325416128
        5.9480000000         3.2969151869
        1.7420000000         2.3120245012
 p    1  1.00
        0.5550000000         0.6828201314
 p    1  1.00
        0.1725000000         0.1584624850
 d    1  1.00
        1.6540000000         3.9705127077
 d    1  1.00
        0.4690000000         0.4374837549
 f    1  1.00
        1.0930000000         1.7982489446

[5d]
[9g]

[MO]
 Sym= A
 Ene=       -15.7508760523
 Spin= Alpha
 Occup=  2.0000
  1       0.492466667496
  2       0.000593620029
  3       0.020565333628
  4       0.000780413563
  5      -0.001015789119
  6      -0.001020294419
  7      -0.001010928917
  8       0.000231065915
  9       0.000259676135
 10       0.000209407931
 11      -0.000171914746
 12      -0.000168242486
 13      -0.000174066421
 14       0.000003946576
 15       0.000152773415
 16       0.000146022002
 17       0.000002879354
 18       0.000140436200
 19       0.000007846214
 20      -0.000032232645
 21      -0.000043680504
 22       0.000005998756
 23      -0.000052089027
 24      -0.000015552287
 25       0.000007642891
 26       0.000008403004
 27      -0.000001436918
 28       0.000031556342
 29      -0.000013372784
 30       0.000012007775
 31       0.465778868589
 32       0.000639852341
 33       0.019405759230
 34       0.000834889486
 35       0.000946886775
 36       0.000949272409
 37      -0.000960941677
 38      -0.000173275930
 39      -0.000146288574
 40       0.000155800583
 41       0.000190135283
 42       0.000196770873
 43      -0.000195409734
 44       0.000003887579
 45      -0.000140945927
 46      -0.000146422880
 47      -0.000002895808
 48       0.000138250234
 49      -0.000001222256
 50       0.000020365942
 51       0.000006282212
 52      -0.000008261023
 53      -0.000013369222
 54      -0.000011259657
 55      -0.000010070443
 56      -0.000007221780
 57       0.000003920904
 58       0.000027413029
 59       0.000006328142
 60      -0.000009175589
 61       0.511370660231
 62       0.000560198235
 63       0.021389051252
 64       0.000741758387
 65       0.001067714111
 66      -0.001052238048
 67       0.001064843447
 68      -0.000272725742
 69       0.000297010623
 70      -0.000293207812
 71       0.000159343076
 72      -0.000152115777
 73       0.000154636283
 74       0.000000450506
 75       0.000154770505
 76      -0.000144941661
 77       0.000005671946
 78      -0.000149368407
 79      -0.000003956941
 80      -0.000060434265
 81       0.000071728829
 82       0.000005152736
 83       0.000061345306
 84       0.000017790602
 85      -0.000012558604
 86       0.000013442283
 87       0.000001067643
 88       0.000035110911
 89       0.000013171549
 90       0.000012551587
 91       0.485597933625
 92       0.000606135382
 93       0.020268376240
 94       0.000795374419
 95      -0.001000285919
 96       0.001002812755
 97       0.000997601966
 98       0.000217038755
 99      -0.000189320039
100      -0.000236846089
101      -0.000176744906
102       0.000183506378
103       0.000172125319
104      -0.000004439276
105      -0.000140244152
106       0.000145869143
107      -0.000002990322
108      -0.000150144538
109      -0.000011668847
110       0.000048954274
111      -0.000034318059
112      -0.000008401839
113       0.000024473056
114       0.000013937097
115       0.000014239471
116      -0.000011274844
117      -0.000004108161
118       0.000031017502
119      -0.000007173000
120      -0.000009944242
 Sym= A
 Ene=       -15.7499672383
 Spin= Alpha
 Occup=  2.0000
  1       0.298564344982
  2      -0.000581680168
  3       0.012878890153
  4      -0.000690653771
  5      -0.000666802327
  6      -0.000663468676
  7      -0.000659993053
  8       0.001385627703
  9       0.000075597145
 10       0.001091568548
 11       0.000418621340
 12       0.000049071026
 13       0.000334849982
 14      -0.000037053325
 15      -0.000102777947
 16       0.000127902433
 17      -0.000115583838
 18       0.000077293479
 19      -0.000124091809
 20      -0.000760259943
 21       0.000008351134
 22      -0.000399968808
 23      -0.000161236319
 24      -0.000037147626
 25       0.000145924456
 26      -0.000017847422
 27       0.000201220276
 28       0.000037796188
 29       0.000065718082
 30       0.000048907720
 31       0.146917957038
 32      -0.000261228161
 33       0.006326931648
 34      -0.000306294268
 35       0.000315315644
 36       0.000328326891
 37      -0.000331490587
 38       0.000427678300
 39      -0.000873454168
 40       0.000748290653
 41       0.000116392554
 42      -0.000256081349
 43       0.000223801474
 44      -0.000050446072
 45      -0.000103062206
 46       0.000125390401
 47       0.000111099832
 48       0.000078968249
 49      -0.000185678736
 50      -0.000142716634
 51       0.000634799991
 52       0.000395958416
 53       0.000070929414
 54      -0.000021173740
 55       0.000011697085
 56      -0.000160451572
 57      -0.000203929243
 58       0.000015678925
 59       0.000014368996
 60       0.000096675182
 61      -0.817704659235
 62       0.001684062089
 63      -0.035352673962
 64       0.002019101323
 65      -0.001844835648
 66       0.001822874864
 67      -0.001836829603
 68       0.002562921037
 69      -0.002370109303
 70       0.002268445986
 71       0.000822380789
 72      -0.000769207817
 73       0.000735968110
 74      -0.000021903887
 75      -0.000094146985
 76       0.000121055468
 77       0.000012041467
 78       0.000071677699
 79      -0.000077094324
 80       0.000868821435
 81      -0.000761860370
 82       0.000055019061
 83      -0.000932834468
 84      -0.000094220538
 85       0.000042211000
 86      -0.000021727960
 87       0.000025395798
 88      -0.000087236831
 89      -0.000087889497
 90      -0.000101526669
 91       0.417546796111
 92      -0.000794885027
 93       0.018020204056
 94      -0.000942891544
 95      -0.000936075407
 96       0.000937201523
 97       0.000922521130
 98       0.001625245199
 99      -0.001463862095
100      -0.000444521938
101       0.000499722826
102      -0.000452976740
103      -0.000157069759
104       0.000107648277
105      -0.000101230174
106       0.000129805435
107      -0.000014177073
108       0.000076777217
109       0.000387862498
110       0.000248876729
111      -0.000152201918
112      -0.000047870620
113       0.000858647889
114       0.000036791223
115      -0.000093288017
116       0.000114939404
117      -0.000025344900
118       0.000044877039
119      -0.000140387230
120      -0.000153798222
 Sym= A
 Ene=       -15.7499496075
 Spin= Alpha
 Occup=  2.0000
  1       0.781009708973
  2      -0.001566750685
  3       0.033746693802
  4      -0.001873463441
  5      -0.001746262850
  6      -0.001764288645
  7      -0.001735432510
  8       0.001978369953
  9       0.002529489612
 10       0.002289723880
 11       0.000645390615
 12       0.000805015545
 13       0.000731878739
 14      -0.000004958904
 15       0.000135908890
 16       0.000041911456
 17       0.000046875665
 18       0.000099342343
 19      -0.000002121767
 20      -0.000659009608
 21      -0.000980663633
 22       0.000174284406
 23      -0.000790770611
 24      -0.000094082775
 25       0.000025111420
 26       0.000093296521
 27      -0.000085211283
 28       0.000083665392
 29      -0.000090493968
 30       0.000040821670
 31      -0.230708706558
 32       0.000422139173
 33      -0.009957181004
 34       0.000500377544
 35      -0.000515636151
 36      -0.000522266268
 37       0.000510106868
 38       0.000740927668
 39       0.001283058608
 40       0.000088798588
 41       0.000231877229
 42       0.000385372257
 43       0.000011833642
 44      -0.000109213222
 45       0.000139846489
 46       0.000046370580
 47      -0.000047096571
 48       0.000100167341
 49      -0.000393279727
 50       0.000146796921
 51      -0.000171051040
 52      -0.000168658344
 53       0.000679066529
 54       0.000016428814
 55      -0.000155732225
 56      -0.000086494829
 57       0.000083690738
 58      -0.000025526158
 59      -0.000159820880
 60       0.000110581969
 61      -0.031050074961
 62       0.000066224718
 63      -0.001333580325
 64       0.000079654906
 65      -0.000068366151
 66       0.000061152069
 67      -0.000071098778
 68       0.000342903625
 69       0.000744077647
 70       0.000660865056
 71       0.000097643293
 72       0.000207395252
 73       0.000190999792
 74       0.000084611572
 75       0.000143333030
 76       0.000048827252
 77       0.000093915518
 78       0.000106063187
 79       0.000297056076
 80       0.000518220929
 81       0.000120782768
 82       0.000326705329
 83       0.000316438244
 84      -0.000011711368
 85       0.000172015464
 86      -0.000034644120
 87       0.000164622022
 88      -0.000002934200
 89       0.000128408377
 90       0.000038429556
 91      -0.538126333803
 92       0.001056950552
 93      -0.023239876579
 94       0.001261791413
 95       0.001197058593
 96      -0.001210756566
 97      -0.001201665431
 98      -0.000903091975
 99       0.001979630757
100       0.001748670774
101      -0.000308253034
102       0.000615918928
103       0.000550462428
104       0.000029412686
105       0.000138753974
106       0.000048032585
107      -0.000092553915
108       0.000103093491
109       0.000099189954
110      -0.000297898693
111       0.000934553312
112      -0.000332409683
113      -0.000421825549
114      -0.000068910457
115      -0.000005876109
116       0.000143742372
117      -0.000168429182
118      -0.000058121085
119       0.000061782906
120      -0.000031216558
 Sym= A
 Ene=       -15.7499207008
 Spin= Alpha
 Occup=  2.0000
  1       0.113398438705
  2      -0.000237469992
  3       0.004916615139
  4      -0.000287448863
  5      -0.000265189579
  6      -0.000262792366
  7      -0.000246094537
  8       0.000920157825
  9       0.000554309401
 10      -0.000459102991
 11       0.000281491528
 12       0.000175895207
 13      -0.000119199107
 14       0.000114342520
 15       0.000052257774
 16       0.000117127692
 17      -0.000030598986
 18      -0.000125159095
 19       0.000417738539
 20       0.000010581087
 21       0.000234125785
 22      -0.000109287148
 23      -0.000606887451
 24       0.000003745289
 25      -0.000112886986
 26      -0.000163234979
 27       0.000059225346
 28       0.000006787095
 29      -0.000120313022
 30       0.000148744559
 31      -0.814102324113
 32       0.001574647801
 33      -0.035141802271
 34       0.001876625137
 35      -0.001808132604
 36      -0.001809663472
 37       0.001829536155
 38       0.002418169767
 39       0.002054287084
 40      -0.002488080510
 41       0.000763508132
 42       0.000661720356
 43      -0.000783003252
 44       0.000019635685
 45       0.000051728503
 46       0.000117722549
 47       0.000031386323
 48      -0.000122818356
 49       0.000083178005
 50      -0.000991718885
 51      -0.000770569511
 52       0.000106558331
 53       0.000734063677
 54       0.000096188396
 55       0.000109810743
 56       0.000060003634
 57      -0.000057827037
 58      -0.000089550417
 59      -0.000035805558
 60       0.000064939577
 61       0.152870877312
 62      -0.000339250672
 63       0.006623066088
 64      -0.000412079228
 65       0.000339482726
 66      -0.000344287449
 67       0.000351812291
 68       0.000319181642
 69       0.000655421165
 70      -0.001071938006
 71       0.000068859764
 72       0.000208420224
 73      -0.000330633490
 74      -0.000088524754
 75       0.000050404330
 76       0.000122933977
 77       0.000084289137
 78      -0.000122106003
 79      -0.000316211815
 80      -0.000057984809
 81       0.000640987773
 82       0.000295944077
 83      -0.000192880145
 84       0.000028165557
 85      -0.000055726465
 86       0.000185192421
 87       0.000152291265
 88       0.000016612395
 89      -0.000035016155
 90      -0.000117147367
 91       0.504746218415
 92      -0.001041600363
 93       0.021821891566
 94      -0.001252661976
 95      -0.001134621942
 96       0.001128329008
 97       0.001131717274
 98       0.001797876358
 99      -0.000825139695
100      -0.001838750045
101       0.000570453858
102      -0.000295862740
103      -0.000582713057
104      -0.000052599717
105       0.000059606823
106       0.000112722912
107      -0.000083542284
108      -0.000120642418
109      -0.000181347927
110       0.000930228905
111      -0.000347081133
112      -0.000293790580
113       0.000321017905
114       0.000065014583
115       0.000164742012
116      -0.000034792300
117      -0.000152468332
118       0.000055104040
119       0.000047732883
120      -0.000034293100
 Sym= A
 Ene=        -1.6534729166
 Spin= Alpha
 Occup=  2.0000
  1       0.008528153862
  2      -0.227229970449
  3      -0.053806076913
  4      -0.061128496073
  5       0.037001196567
  6       0.036955470214
  7       0.037028354250
  8       0.051349232937
  9       0.051407426497
 10       0.051274742007
 11       0.008872519025
 12       0.008914667524
 13       0.008828685269
 14       0.000010469749
 15      -0.004639904634
 16      -0.004589961889
 17       0.000003239014
 18      -0.004542516527
 19       0.000113613663
 20      -0.009553851050
 21      -0.009541198244
 22       0.000063431520
 23      -0.009530517234
 24      -0.001768461979
 25       0.001079307754
 26       0.001036336410
 27       0.000017879109
 28       0.001136507043
 29      -0.001337921231
 30       0.001311641048
 31       0.008457425789
 32      -0.225726032709
 33      -0.053483024526
 34      -0.060703126439
 35      -0.036425677605
 36      -0.036673223957
 37       0.037164603522
 38      -0.050597067394
 39      -0.050907582719
 40       0.051508326043
 41      -0.008737443050
 42      -0.008788152764
 43       0.008862953403
 44      -0.000070411357
 45       0.004604633256
 46       0.004624491540
 47       0.000042141745
 48      -0.004489027211
 49      -0.000092514882
 50       0.009500378661
 51       0.009543937902
 52       0.000073355088
 53      -0.009349954448
 54      -0.001720673190
 55      -0.001079885788
 56      -0.001076101067
 57      -0.000006813156
 58       0.001136405129
 59       0.001341099857
 60      -0.001292106927
 61       0.008596529488
 62      -0.228736221686
 63      -0.054126966950
 64      -0.061571255299
 65      -0.037564082235
 66       0.036807189062
 67      -0.037307615322
 68      -0.052097569471
 69       0.051166675922
 70      -0.051776799031
 71      -0.009012614629
 72       0.008882828618
 73      -0.008960229255
 74       0.000002647107
 75      -0.004691189696
 76       0.004552693091
 77      -0.000083792008
 78       0.004571943811
 79       0.000019068642
 80      -0.009736317322
 81       0.009539972960
 82      -0.000120091009
 83       0.009583113473
 84       0.001759873091
 85      -0.001076348949
 86       0.001046940184
 87      -0.000060350402
 88       0.001133033991
 89       0.001337410783
 90       0.001362023138
 91       0.008525936562
 92      -0.227211774057
 93      -0.053801016721
 94      -0.061132789082
 95       0.036990692113
 96      -0.037238112767
 97      -0.036734256480
 98       0.051342097590
 99      -0.051652779485
100      -0.051021658429
101       0.008873629862
102      -0.008924830151
103      -0.008821771195
104       0.000074927104
105       0.004569844725
106      -0.004588032356
107       0.000042798910
108       0.004608974919
109       0.000130131769
110       0.009498912380
111      -0.009540450795
112       0.000074339471
113       0.009585629618
114       0.001761323526
115       0.001042620979
116      -0.001004371042
117       0.000026932761
118       0.001135391735
119      -0.001367600280
120      -0.001343130108
 Sym= A
 Ene=        -1.0447063339
 Spin= Alpha
 Occup=  2.0000
  1       0.001498918058
  2       0.306418442358
  3       0.077826259635
  4       0.214788319746
  5      -0.008997369439
  6       0.057793418744
  7      -0.040884793953
  8      -0.022694853532
  9       0.067909945977
 10      -0.066044542513
 11      -0.012968481469
 12       0.010275651232
 13      -0.024237476232
 14       0.005014456689
 15       0.004953800249
 16      -0.001355469550
 17       0.004498482318
 18      -0.004441245270
 19       0.009988484437
 20       0.014621014522
 21       0.001102974508
 22       0.008950251908
 23      -0.005526669126
 24       0.000061094341
 25      -0.002716222820
 26      -0.001421630878
 27      -0.002153835438
 28       0.000349692625
 29      -0.001721521471
 30      -0.000107886716
 31      -0.001605395458
 32      -0.327989026516
 33      -0.083312347959
 34      -0.230069045982
 35      -0.010712161890
 36       0.054943517527
 37       0.034477338357
 38      -0.025838707063
 39       0.063422715067
 40       0.058335457629
 41      -0.014304171269
 42       0.008623124673
 43       0.022908555007
 44      -0.004384172134
 45       0.004502339894
 46      -0.001712539101
 47      -0.004388050250
 48       0.003959184320
 49      -0.008845311548
 50       0.014120464085
 51       0.000642890847
 52      -0.008782767315
 53       0.004249365729
 54      -0.000082684784
 55      -0.002497142391
 56      -0.001205517550
 57       0.002121363449
 58      -0.000423919967
 59      -0.001518352825
 60      -0.000258083432
 61       0.000896156617
 62       0.180699501200
 63       0.045874023194
 64       0.126713076452
 65       0.050101488678
 66       0.073522157482
 67       0.017517388034
 68       0.074331879245
 69       0.093706726886
 70       0.029996099144
 71       0.023387008542
 72       0.019877691966
 73       0.011940935179
 74       0.002197673068
 75       0.006564217871
 76       0.005188074557
 77       0.008236125393
 78       0.002163276393
 79       0.004377830576
 80       0.016541921396
 81       0.008864169729
 82       0.016506936893
 83       0.002283415842
 84      -0.000095101993
 85       0.002137782463
 86       0.000280707546
 87       0.003988374180
 88       0.000301268268
 89       0.002004383208
 90      -0.001311452893
 91      -0.000817522603
 92      -0.161751561105
 93      -0.041047358800
 94      -0.113682546397
 95       0.046946263057
 96       0.074864810614
 97      -0.023371785984
 98       0.069502354204
 99       0.096153843751
100      -0.037421776196
101       0.021755700833
102       0.020882337319
103      -0.013477239332
104      -0.002903747924
105       0.006739161000
106       0.004750128950
107      -0.008172332630
108      -0.002500347245
109      -0.005823402193
110       0.016798624163
111       0.008167498445
112      -0.016387406149
113      -0.003252437418
114      -0.000010618419
115       0.002343307852
116       0.000005673408
117      -0.003930782417
118      -0.000199693221
119       0.002114718622
120      -0.001224865546
 Sym= A
 Ene=        -1.0413306341
 Spin= Alpha
 Occup=  2.0000
  1       0.000454386986
  2       0.086777946459
  3       0.022041032785
  4       0.061271505878
  5       0.079987903066
  6      -0.038668267592
  7      -0.038289268533
  8       0.105784169884
  9      -0.055591881427
 10      -0.055178625290
 11       0.025389647513
 12      -0.016393422301
 13      -0.016456365513
 14       0.004475650441
 15      -0.003808474195
 16       0.007332744797
 17      -0.007921729935
 18      -0.003854777977
 19       0.009020170966
 20      -0.007122861068
 21       0.017104616426
 22      -0.015944876647
 23      -0.007242646221
 24      -0.000220124818
 25      -0.000564576367
 26      -0.002820078965
 27       0.003828063832
 28       0.000113609722
 29       0.000658856782
 30       0.002565555588
 31      -0.001195813682
 32      -0.233600200607
 33      -0.059374149747
 34      -0.164735524198
 35       0.062714420024
 36      -0.055244853999
 37      -0.000753331185
 38       0.077224383455
 39      -0.083273542576
 40       0.007139793408
 41       0.014560042108
 42      -0.027060582666
 43       0.007429219362
 44      -0.000212043599
 45      -0.005776334384
 46       0.005379338135
 47       0.007825450562
 48       0.000508315477
 49      -0.000451076165
 50      -0.009488573189
 51       0.014780791612
 52       0.015750977902
 53      -0.002021086038
 54      -0.000300795818
 55       0.000891063235
 56      -0.001432361673
 57      -0.003812849806
 58      -0.000297873993
 59       0.001767344539
 60       0.001424248284
 61      -0.001240623839
 62      -0.232520612605
 63      -0.059020807617
 64      -0.164327466957
 65       0.062936246717
 66      -0.001150638067
 67      -0.056053817569
 68       0.077423412899
 69       0.006565618703
 70      -0.084440091178
 71       0.014534742247
 72       0.007151397099
 73      -0.027477608311
 74      -0.006773489134
 75       0.000413667499
 76       0.005360957680
 77       0.004133806238
 78      -0.005816631746
 79      -0.013656577832
 80      -0.002158656639
 81       0.014769661613
 82       0.008305736046
 83      -0.009542998311
 84      -0.000243252060
 85      -0.002025472190
 86       0.003190541667
 87       0.001980173967
 88      -0.000317420750
 89      -0.000418985051
 90      -0.002114011961
 91       0.001982688748
 92       0.379347154709
 93       0.096354356362
 94       0.267801415904
 95       0.045651480488
 96       0.016700335355
 97       0.015721535255
 98       0.048845184910
 99       0.036023049821
100       0.034611766005
101       0.003698168706
102       0.018358479245
103       0.017913211351
104       0.002283043003
105       0.002440988276
106       0.003405038890
107      -0.004167724020
108       0.002408471241
109       0.004559974778
110       0.000294064826
111       0.012443021912
112      -0.008413629236
113       0.000186548288
114      -0.000353720190
115      -0.000547074619
116       0.001706605051
117      -0.002023671449
118       0.000499779154
119       0.000707858342
120      -0.000996307368
 Sym= A
 Ene=        -1.0380041668
 Spin= Alpha
 Occup=  2.0000
  1       0.001699270144
  2       0.305985040425
  3       0.077724859981
  4       0.217528161288
  5      -0.006275961752
  6      -0.039439639534
  7       0.059146156197
  8      -0.019484223412
  9      -0.064642162059
 10       0.069777705144
 11      -0.012459030756
 12      -0.024152922120
 13       0.010966499311
 14      -0.006249548088
 15      -0.004575327610
 16      -0.001529785521
 17      -0.002230752989
 18       0.004622896754
 19      -0.012729809093
 20      -0.005965422050
 21       0.000745231208
 22      -0.004537514056
 23       0.014334634905
 24       0.000899566356
 25       0.002310794908
 26       0.001713195339
 27       0.001036485001
 28       0.000455994759
 29       0.002162625429
 30      -0.001225444162
 31       0.001002920817
 32       0.182981291497
 33       0.046501692723
 34       0.130018082206
 35       0.049177729189
 36       0.016661101036
 37       0.072640572759
 38       0.073439356294
 39       0.029211937923
 40       0.092422221104
 41       0.023548475643
 42       0.012019256801
 43       0.019808538211
 44      -0.008115596411
 45       0.001923034265
 46       0.005031158684
 47       0.002116189463
 48       0.006350669286
 49      -0.016428987164
 50       0.001775934467
 51       0.008536316136
 52       0.004255929847
 53       0.016374423877
 54       0.000964975613
 55      -0.002422835396
 56      -0.003080706890
 57      -0.001069748443
 58       0.000179843519
 59      -0.001588370700
 60       0.002413762830
 61      -0.001824238325
 62      -0.328256055375
 63      -0.083373964391
 64      -0.233196171156
 65      -0.009691765721
 66       0.034062310480
 67       0.056866833601
 68      -0.024862529431
 69       0.057850553186
 70       0.065753444338
 71      -0.014371866085
 72       0.022753140780
 73       0.009374365106
 74       0.006009134562
 75       0.004050770831
 76      -0.001760843869
 77       0.001597474344
 78       0.004486453690
 79       0.012138441774
 80       0.004469026111
 81       0.000509681630
 82       0.003176108618
 83       0.014142511829
 84       0.000917593871
 85       0.002128351240
 86      -0.001650609445
 87       0.000755376956
 88      -0.000441218202
 89       0.001994226752
 90       0.001357207034
 91      -0.000852180137
 92      -0.158072511358
 93      -0.040187868457
 94      -0.112070758104
 95       0.047189311609
 96      -0.022646242146
 97       0.076411319682
 98       0.069744868924
 99      -0.036361744714
100       0.098473204984
101       0.021936461426
102      -0.013225657203
103       0.022051094933
104       0.008468517843
105      -0.002592531922
106       0.004875857905
107      -0.001629210895
108       0.006765687418
109       0.017121677950
110      -0.003581803374
111       0.008529063014
112      -0.003295048239
113       0.016822269712
114       0.000861162758
115      -0.002700067307
116       0.003161863403
117      -0.000795522749
118      -0.000222077269
119      -0.001749684865
120      -0.002402501771
 Sym= A
 Ene=        -0.6857071389
 Spin= Alpha
 Occup=  2.0000
  1       0.002450786178
  2       0.127964932634
  3       0.037899108815
  4       0.164148657193