[Molden Format]
[Title]
N4                                                                              
[Atoms] AU
 n     1    7 0.12141712962000E+01 0.00000000000000E+00 0.11929119035000E+01
 n     2    7 -.13902703010000E+01 0.80233672640000E+00 0.58212322750000E+00
 n     3    7 0.58082277020000E+00 0.80233672640000E+00 -.13773978299000E+01
 n     4    7 -.40472376540000E+00 -.16046734527000E+01 -.39763730120000E+00
[GTO]
    1 0
 s    5 1.00
 0.17128415853000E+04 -.54477995804909E-02
 0.25764812677000E+03 -.40627174632423E-01
 0.58458245853000E+02 -.18111962250584E+00
 0.16198367905000E+02 -.46843975563173E+00
 0.50052600809000E+01 -.44616846289231E+00
 s    1 1.00
 0.58731856571000E+00 0.10000000000000E+01
 s    1 1.00
 0.18764592253000E+00 0.10000000000000E+01
 p    3 1.00
 0.13571470233000E+02 -.58848116969522E-01
 0.29257372874000E+01 -.32024624762471E+00
 0.79927750754000E+00 -.75328226520436E+00
 p    1 1.00
 0.21954348034000E+00 0.10000000000000E+01
 d    1 1.00
 0.10000000000000E+01 0.10000000000000E+01
 
    2 0
 s    5 1.00
 0.17128415853000E+04 -.54477995804909E-02
 0.25764812677000E+03 -.40627174632423E-01
 0.58458245853000E+02 -.18111962250584E+00
 0.16198367905000E+02 -.46843975563173E+00
 0.50052600809000E+01 -.44616846289231E+00
 s    1 1.00
 0.58731856571000E+00 0.10000000000000E+01
 s    1 1.00
 0.18764592253000E+00 0.10000000000000E+01
 p    3 1.00
 0.13571470233000E+02 -.58848116969522E-01
 0.29257372874000E+01 -.32024624762471E+00
 0.79927750754000E+00 -.75328226520436E+00
 p    1 1.00
 0.21954348034000E+00 0.10000000000000E+01
 d    1 1.00
 0.10000000000000E+01 0.10000000000000E+01
 
    3 0
 s    5 1.00
 0.17128415853000E+04 -.54477995804909E-02
 0.25764812677000E+03 -.40627174632423E-01
 0.58458245853000E+02 -.18111962250584E+00
 0.16198367905000E+02 -.46843975563173E+00
 0.50052600809000E+01 -.44616846289231E+00
 s    1 1.00
 0.58731856571000E+00 0.10000000000000E+01
 s    1 1.00
 0.18764592253000E+00 0.10000000000000E+01
 p    3 1.00
 0.13571470233000E+02 -.58848116969522E-01
 0.29257372874000E+01 -.32024624762471E+00
 0.79927750754000E+00 -.75328226520436E+00
 p    1 1.00
 0.21954348034000E+00 0.10000000000000E+01
 d    1 1.00
 0.10000000000000E+01 0.10000000000000E+01
 
    4 0
 s    5 1.00
 0.17128415853000E+04 -.54477995804909E-02
 0.25764812677000E+03 -.40627174632423E-01
 0.58458245853000E+02 -.18111962250584E+00
 0.16198367905000E+02 -.46843975563173E+00
 0.50052600809000E+01 -.44616846289231E+00
 s    1 1.00
 0.58731856571000E+00 0.10000000000000E+01
 s    1 1.00
 0.18764592253000E+00 0.10000000000000E+01
 p    3 1.00
 0.13571470233000E+02 -.58848116969522E-01
 0.29257372874000E+01 -.32024624762471E+00
 0.79927750754000E+00 -.75328226520436E+00
 p    1 1.00
 0.21954348034000E+00 0.10000000000000E+01
 d    1 1.00
 0.10000000000000E+01 0.10000000000000E+01
 
[MO]
 Sym=     1a   
 Ene= -.15752733236285E+02
 Spin= Alpha
 Occup= 2.000000
     1 0.50154022208339E+00
     2 -.17072818081055E-01
     3 0.47393250339663E-02
     4 -.14558821468113E-02
     5 -.35335377326277E-06
     6 -.14392760959886E-02
     7 -.16756327753450E-02
     8 -.74898360860988E-05
     9 -.17010349081899E-02
    10 0.11554908611656E-03
    11 -.21291004619516E-03
    12 0.97360960078600E-04
    13 0.27424593911724E-06
    14 0.36797559845962E-03
    15 -.20947596971356E-05
    16 0.50704261843801E+00
    17 -.17216053190641E-01
    18 0.47393406435515E-02
    19 0.16797403343430E-02
    20 -.97142089017807E-03
    21 -.70818849497674E-03
    22 0.18946380800423E-02
    23 -.11140927100951E-02
    24 -.83166385550725E-03
    25 0.20978676012498E-03
    26 -.67162690893925E-04
    27 -.14262406923105E-03
    28 -.27988817348897E-03
    29 -.20081028612760E-03
    30 0.11756740144648E-03
    31 0.48271297708952E+00
    32 -.16493425474803E-01
    33 0.44142831501617E-02
    34 -.67473918446980E-03
    35 -.93509635422277E-03
    36 0.16051292547251E-02
    37 -.78585545865937E-03
    38 -.11025526343763E-02
    39 0.18810302589900E-02
    40 -.13721201148444E-03
    41 -.79783378973639E-04
    42 0.21699539045808E-03
    43 0.11828606694435E-03
    44 -.20785475257686E-03
    45 -.28888449054524E-03
    46 0.49095823812718E+00
    47 -.16726265661500E-01
    48 0.44777194663683E-02
    49 0.47704767077725E-03
    50 0.18916342556376E-02
    51 0.46752042765716E-03
    52 0.54179248853672E-03
    53 0.21721330108567E-02
    54 0.52617476231268E-03
    55 -.17461275197745E-03
    56 0.35709123525009E-03
    57 -.18247848327264E-03
    58 0.16037647256216E-03
    59 0.42864049662893E-04
    60 0.17321308195342E-03
 Sym=     2a   
 Ene= -.15752070775761E+02
 Spin= Alpha
 Occup= 2.000000
     1 0.58777850064457E+00
     2 -.19318990884730E-01
     3 0.14781989888389E-01
     4 -.16616532932428E-02
     5 0.43978861208255E-04
     6 -.15315625881353E-02
     7 -.46718862364001E-02
     8 0.74461196745975E-03
     9 -.25092891332117E-02
    10 -.32909056173276E-03
    11 0.15475053896956E-03
    12 0.17434002276319E-03
    13 0.16146310314089E-03
    14 -.18247341983572E-03
    15 0.47844844492655E-04
    16 -.78286342166872E+00
    17 0.25680453626891E-01
    18 -.19773547635153E-01
    19 -.24622463087825E-02
    20 0.14012565055739E-02
    21 0.99354262749201E-03
    22 -.59747032357829E-02
    23 0.29484842169781E-02
    24 0.15691855625066E-02
    25 0.28522869633895E-03
    26 -.12246606400051E-03
    27 -.16276263233845E-03
    28 -.23589970796043E-03
    29 -.50625412637786E-04
    30 0.27853976352054E-04
    31 0.13425655364015E+00
    32 -.44259422353462E-02
    33 0.33370649426064E-02
    34 -.31683423389031E-03
    35 -.18192994682723E-03
    36 0.39257064208603E-03
    37 -.24762399449315E-02
    38 0.37383000917956E-03
    39 0.60542749568359E-03
    40 -.21990619440920E-03
    41 0.11630671327768E-03
    42 0.10359948113152E-03
    43 -.46559491792443E-04
    44 0.41071988158080E-03
    45 -.13976783350673E-03
    46 0.76057909073564E-01
    47 -.24964016720150E-02
    48 0.18060800599513E-02
    49 -.78111361952663E-04
    50 0.31597485898190E-03
    51 0.63824164798170E-04
    52 -.21010521595561E-02
    53 0.11590977614529E-02
    54 0.62781996637872E-04
    55 0.12295860460960E-03
    56 -.20525924605043E-03
    57 0.82300641440821E-04
    58 0.38554119637728E-03
    59 0.19993045925475E-03
    60 -.64512117840935E-04
 Sym=     3a   
 Ene= -.15752046514935E+02
 Spin= Alpha
 Occup= 2.000000
     1 -.49543969889547E+00
     2 0.16259564596932E-01
     3 -.12582020870968E-01
     4 0.13358256572440E-02
     5 0.11752978108732E-03
     6 0.13761457692716E-02
     7 0.27220844061322E-02
     8 0.18067187471874E-02
     9 0.33498617406134E-02
    10 -.76465326418090E-04
    11 -.21867767117798E-04
    12 0.98333093535888E-04
    13 0.27975938573829E-03
    14 0.24253644892649E-03
    15 0.23500684652686E-03
    16 -.29321527542357E+00
    17 0.95995142534191E-02
    18 -.74153328322335E-02
    19 -.83926095550196E-03
    20 0.62907403740788E-03
    21 0.45320078791715E-03
    22 -.77952464698562E-03
    23 0.26282006331672E-02
    24 0.18633102066524E-02
    25 -.27697070114958E-03
    26 0.29167217802037E-03
    27 -.14701476870787E-04
    28 -.14963454259012E-03
    29 -.18238117564546E-03
    30 0.24057400972437E-03
    31 0.23171042285231E-02
    32 -.71026399177402E-04
    33 -.72349124933166E-04
    34 0.40605162004422E-04
    35 0.11185429127349E-03
    36 0.10311866108468E-03
    37 0.63562959895097E-03
    38 0.18100525998347E-02
    39 0.12669026215900E-02
    40 -.26035629809570E-04
    41 0.37735417414986E-03
    42 -.35131854434029E-03
    43 0.22047555343322E-03
    44 -.43628726111549E-04
    45 -.10645176936174E-03
    46 0.80666880555118E+00
    47 -.26494168303791E-01
    48 0.20261496560079E-01
    49 0.74423989938129E-03
    50 0.29247123987694E-02
    51 0.78401817423407E-03
    52 0.17550428560636E-02
    53 0.63202265664881E-02
    54 0.23997787327995E-02
    55 0.11088951777257E-03
    56 -.21153754318578E-03
    57 0.10064802541321E-03
    58 -.12380287890380E-03
    59 -.11028514470865E-03
    60 -.26685084365633E-03
 Sym=     4a   
 Ene= -.15752027777523E+02
 Spin= Alpha
 Occup= 2.000000
     1 -.37389976122650E+00
     2 0.12256942304545E-01
     3 -.95405459624747E-02
     4 0.94722661213976E-03
     5 -.87810711016714E-04
     6 0.11164493894842E-02
     7 0.11069196795427E-02
     8 -.12328733831843E-02
     9 0.34747022788984E-02
    10 -.22937884404563E-03
    11 -.14928244194214E-03
    12 0.37866128598777E-03
    13 -.10877326007064E-03
    14 0.12133321508096E-03
    15 -.24758322737180E-03
    16 -.16236232613689E+00
    17 0.53139004569494E-02
    18 -.42140941148937E-02
    19 -.51846983384203E-03
    20 0.20067434575081E-03
    21 0.32894510446522E-03
    22 -.12627513114678E-02
    23 -.76773692505848E-03
    24 0.22307606658938E-02
    25 0.31366974805106E-04
    26 -.23181568504170E-03
    27 0.20044871023660E-03
    28 0.13885021843046E-03
    29 -.38195870882736E-03
    30 -.15971239239028E-04
    31 0.85511934075142E+00
    32 -.28121070480874E-01
    33 0.21540872198385E-01
    34 -.10976180420025E-02
    35 -.15756211585388E-02
    36 0.27160653846821E-02
    37 -.21871927668992E-02
    38 -.36200332579898E-02
    39 0.60442339666730E-02
    40 0.15777423079247E-03
    41 0.49071542253167E-04
    42 -.20684577304563E-03
    43 -.90979763104624E-04
    44 0.10478090154261E-03
    45 0.26819257489792E-03
    46 -.29111591479862E+00
    47 0.95577822720976E-02
    48 -.75173546946107E-02
    49 -.28345885722434E-03
    50 -.10895213465418E-02
    51 -.12537015383704E-03
    52 -.88098507301642E-03
    53 -.28811386358967E-02
    54 0.14820648751766E-02
    55 -.10754969942381E-03
    56 0.25324124361061E-03
    57 -.14569154418679E-03
    58 0.16339662748072E-03
    59 -.14767862379006E-03
    60 -.33125981815496E-03
 Sym=     5a   
 Ene= -.16678046363059E+01
 Spin= Alpha
 Occup= 2.000000
     1 0.13004304929776E+00
     2 0.26205618584627E+00
     3 0.70310239452887E-01
     4 0.95994995210879E-01
     5 -.12027848608766E-04
     6 0.96401909375219E-01
     7 -.26863022347827E-01
     8 -.13964628882355E-05
     9 -.26621675423408E-01
    10 0.33951795728859E-02
    11 -.66942802670191E-02
    12 0.32991006941333E-02
    13 0.24864876961866E-04
    14 0.11594631500124E-01
    15 -.26450877334156E-04
    16 0.12918023609301E+00
    17 0.26039983997012E+00
    18 0.69257837173866E-01
    19 -.10972949510655E+00
    20 0.63574968006600E-01
    21 0.46812731524679E-01
    22 0.30254794390359E-01
    23 -.17595168956287E-01
    24 -.12793197399638E-01
    25 0.65563763445207E-02
    26 -.22241398100188E-02
    27 -.43322365345018E-02
    28 -.88121554042987E-02
    29 -.64777914453631E-02
    30 0.37374747796450E-02
    31 0.13090575480896E+00
    32 0.26370892863101E+00
    33 0.71429546739946E-01
    34 0.46123563684770E-01
    35 0.64687954647009E-01
    36 -.11148602244111E+00
    37 -.13052520162236E-01
    38 -.18078969015527E-01
    39 0.31274374807354E-01
    40 -.43679617278488E-02
    41 -.22388606077506E-02
    42 0.66068223355994E-02
    43 0.37310233169588E-02
    44 -.64027658710219E-02
    45 -.89648113782641E-02
    46 0.13003198558419E+00
    47 0.26203367610205E+00
    48 0.70331050427024E-01
    49 -.32473492659408E-01
    50 -.12824963184630E+00
    51 -.31644222104369E-01
    52 0.88945876706791E-02
    53 0.35667320325141E-01
    54 0.89415556008908E-02
    55 -.55154848349964E-02
    56 0.11156611493094E-01
    57 -.56411266580972E-02
    58 0.52046096148512E-02
    59 0.12878347459824E-02
    60 0.51011895133544E-02
 Sym=     6a   
 Ene= -.10459086231566E+01
 Spin= Alpha
 Occup= 2.000000
     1 -.15954347117576E+00
     2 -.33819958338846E+00
     3 -.30784809417130E+00
     4 0.89769181712734E-01
     5 0.27672153251170E-01
     6 -.10714648722129E+00
     7 0.19868096362607E-01
     8 -.69705446545695E-02
     9 0.71244988741941E-01
    10 0.10586858787525E-01
    11 0.13587038466675E-02
    12 -.11945562634192E-01
    13 0.78664289817925E-03
    14 -.18698387079301E-02
    15 0.28352627086313E-02
    16 0.17102940712391E+00
    17 0.36243216299741E+00
    18 0.32976150999874E+00
    19 0.65256707779800E-01
    20 0.10082586065644E+00
    21 0.52311408622382E-01
    22 0.36317607521902E-01
    23 -.57187674052456E-01
    24 -.36491784169997E-01
    25 -.85575396362561E-02
    26 0.76853381868029E-02
    27 0.87220144945322E-03
    28 -.48943813831802E-02
    29 -.28000097087691E-02
    30 0.60807368201341E-02
    31 -.93532962227301E-01
    32 -.19828692214371E+00
    33 -.18094777573123E+00
    34 0.16663619512376E+00
    35 -.14077877957801E-01
    36 0.69853312447494E-01
    37 -.31184107846366E-01
    38 0.20757371460466E-01
    39 -.47476139442942E-01
    40 0.89606832457171E-02
    41 0.37353675268909E-03
    42 -.93342199984062E-02
    43 0.56397349069231E-02
    44 -.11237532291628E-01
    45 0.47229681667016E-02
    46 0.83400371196754E-01
    47 0.17669458465740E+00
    48 0.16163020013611E+00
    49 0.17588635300414E+00
    50 -.45541378138174E-01
    51 -.19748242333198E-01
    52 -.38186723125736E-01
    53 0.42466646095436E-01
    54 0.12728381938899E-01
    55 -.61402077452671E-02
    56 0.70005404766499E-02
    57 -.86033273138285E-03
    58 -.14417175869084E-01
    59 -.45061832085568E-02
    60 0.35383037373556E-02
 Sym=     7a   
 Ene= -.10424696765648E+01
 Spin= Alpha
 Occup= 2.000000
     1 0.43940440752288E-01
     2 0.93151048074800E-01
     3 0.85548089773369E-01
     4 0.22024977321569E-02
     5 0.19335106237732E+00
     6 0.15714920550726E-02
     7 -.12370358446296E-01
     8 -.50886097727366E-01
     9 -.12722168336841E-01
    10 -.68702640782347E-03
    11 0.13863472705056E-02
    12 -.69932086268216E-03
    13 0.12843071741303E-01
    14 0.14872559404282E-02
    15 0.12757766841437E-01
    16 -.12114628445638E+00
    17 -.25682852504904E+00
    18 -.23495062142181E+00
    19 0.63170256605987E-01
    20 0.14029096590282E+00
    21 -.64698026288944E-01
    22 -.54392363379994E-01
    23 -.14821161760493E-01
    24 0.33075954719542E-01
    25 -.78910187834550E-02
    26 0.11632199065201E-01
    27 -.37411802817460E-02
    28 -.65615396127189E-02
    29 0.76354758786203E-02
    30 0.26099277933565E-02
    31 -.12055228256563E+00
    32 -.25554733885805E+00
    33 -.23552395292788E+00
    34 -.64524922497182E-01
    35 0.14172770287867E+00
    36 0.64096590283959E-01
    37 0.32932475377046E-01
    38 -.15239840114708E-01
    39 -.55266240591136E-01
    40 -.38398530072091E-02
    41 0.11799901209743E-01
    42 -.79600482025339E-02
    43 0.26112386548388E-02
    44 0.76003523444577E-02
    45 -.66427141645096E-02
    46 0.19775975957519E+00
    47 0.41922874177615E+00
    48 0.38493612686769E+00
    49 -.70346384236195E-01
    50 0.22005938527894E-01
    51 -.68642481748805E-01
    52 0.36741340148805E-01
    53 0.66471518514834E-01
    54 0.35964846491228E-01
    55 0.14843418309582E-02
    56 -.27731221356837E-02
    57 0.12887803047256E-02
    58 0.60364126104882E-02
    59 0.41484002994074E-02
    60 0.58714320602784E-02
 Sym=     8a   
 Ene= -.10390811894646E+01
 Spin= Alpha
 Occup= 2.000000
     1 -.15906512386948E+00
     2 -.33722367931501E+00
     3 -.31227598547461E+00
     4 -.10351256145352E+00
     5 0.25671166069549E-01
     6 0.93508399994751E-01
     7 0.71499391946580E-01
     8 -.70747483289648E-02
     9 0.19189956417378E-01
    10 -.11949042594021E-01
    11 0.12565895194449E-02
    12 0.10692453074576E-01
    13 0.26772695978611E-02
    14 -.15899477481871E-02
    15 0.76293724055058E-03
    16 -.94602343827215E-01
    17 -.20054214197048E+00
    18 -.18522951137375E+00
    19 0.67051135916906E-01
    20 -.14101847030628E-01
    21 0.16467310209600E+00
    22 -.47822818967628E-01
    23 0.21023025116154E-01
    24 -.31102355112783E-01
    25 -.92747842372555E-02
    26 0.25701279851732E-03
    27 0.90177714387382E-02
    28 0.46999537563882E-02
    29 -.10952152621833E-01
    30 0.54905387317181E-02
    31 0.17092045207313E+00
    32 0.36247109368389E+00
    33 0.33581505903732E+00
    34 0.51428489245447E-01
    35 0.10064632226868E+00
    36 0.69585471076412E-01
    37 -.36074183802291E-01
    38 -.58310184028243E-01
    39 0.35924301394688E-01
    40 0.95853931317995E-03
    41 0.78368568370084E-02
    42 -.87953961501884E-02
    43 0.60555607975368E-02
    44 -.26464748448845E-02
    45 -.47791096923907E-02
    46 0.81384290745111E-01
    47 0.17263078062454E+00
    48 0.15906340511329E+00
    49 -.19596657715797E-01
    50 -.43934410435696E-01
    51 0.17875370806052E+00
    52 0.12671328717954E-01
    53 0.41277750536769E-01
    54 -.40106973694742E-01
    55 -.82833325527568E-03
    56 0.68562996815901E-02
    57 -.60279664263144E-02
    58 0.35456542221199E-02
    59 -.46215368075364E-02
    60 -.14597266136254E-01
 Sym=     9a   
 Ene= -.69409511486833E+00
 Spin= Alpha
 Occup= 2.000000
     1 0.64209733732880E-01
     2 0.12875536761587E+00
     3 0.18424583743101E+00
     4 -.20639024730216E+00
     5 -.41057799826122E-05
     6 -.20286321952465E+00
     7 0.10037339232606E+00
     8 0.61919651722844E-05
     9 0.98009330489796E-01
    10 -.54897564501591E-02
    11 0.10389575430473E-01
    12 -.48998189803138E-02
    13 0.61636093338847E-04
    14 -.17993724196585E-01
    15 -.62732157207680E-04
    16 0.64196786217370E-01
    17 0.12878468334417E+00
    18 0.18464293146316E+00
    19 0.23397744022734E+00
    20 -.13496034036023E+00
    21 -.97969325869143E-01
    22 -.11307065750825E+00
    23 0.65279300520942E-01
    24 0.47111480373323E-01
    25 -.10244004035845E-01
    26 0.35315774200565E-02
    27 0.67124266157889E-02
    28 0.13725637973593E-01
    29 0.99110496155860E-02
    30 -.57525020094693E-02
    31 0.64207681419388E-01
    32 0.12869011530300E+00
    33 0.18376773638445E+00
    34 -.99739622917359E-01
    35 -.13785541966536E+00
    36 0.23661562146076E+00
    37 0.48733267792393E-01
    38 0.66981771785716E-01
    39 -.11507263163121E+00
    40 0.67948446342170E-02
    41 0.33962709591014E-02
    42 -.10191115593318E-01
    43 -.58383989038092E-02
    44 0.10082320813520E-01
    45 0.13864788082336E-01
    46 0.64207909108938E-01
    47 0.12874798148426E+00
    48 0.18423617054455E+00
    49 0.68892350057033E-01
    50 0.27280779765899E+00
    51 0.67550702515988E-01
    52 -.33210260061872E-01
    53 -.13224314286315E+00
    54 -.32936877638417E-01
    55 0.86365416392262E-02
    56 -.17314818422255E-01
    57 0.86782767830286E-02
    58 -.80750076743022E-02
    59 -.20006712815122E-02
    60 -.79238658598121E-02
 Sym=    10a   
 Ene= -.57809088809587E+00
 Spin= Alpha
 Occup= 2.000000
     1 0.72100036616675E-01
     2 0.16729968880257E+00
     3 0.12572018027293E+00
     4 -.17826338272056E-01
     5 -.99793342812399E-01
     6 -.28280101398667E+00
     7 0.41505954358154E-01
     8 0.53933329492601E-01
     9 0.18449741760304E+00
    10 0.93196202400595E-02
    11 0.34928080277421E-02
    12 -.12812428267802E-01
    13 -.28478127320183E-02
    14 -.23341174421572E-02
    15 -.69761032351798E-02
    16 -.11834265357537E+00
    17 -.27489992428636E+00
    18 -.20607776447263E+00
    19 -.24610297353752E+00
    20 0.17250613822443E+00
    21 0.18411683046537E+00
    22 0.19316339429084E+00
    23 -.12731442401541E+00
    24 -.12470132333987E+00
    25 -.22163060074072E-03
    26 -.11969846307606E-02
    27 0.14186152315013E-02
    28 -.39275416560600E-02
    29 -.51508045320664E-02
    30 0.44426271780740E-02
    31 0.23756263568906E-01
    32 0.55042961903437E-01
    33 0.41602255376837E-01
    34 0.20214949790208E+00
    35 -.16217916300638E+00
    36 0.76430635002270E-01
    37 -.10419950230681E+00
    38 0.94915835853439E-01
    39 -.53047737374667E-01
    40 0.94336660694045E-02
    41 -.80786324717725E-02
    42 -.13550335976319E-02
    43 0.73072607676907E-02
    44 -.95803289924474E-02
    45 0.93090871897352E-02
    46 0.21969424171931E-01
    47 0.50898439979246E-01
    48 0.38798307063063E-01
    49 0.25831706645532E+00
    50 0.52968768806046E-03
    51 0.19470349344001E-02
    52 -.14178142077017E+00
    53 -.12839287046277E-01
    54 -.40240206750418E-02
    55 -.92483727600320E-02
    56 0.60215735476520E-02
    57 0.32267992123799E-02
    58 -.15251948505512E-01
    59 -.82508065691784E-03
    60 -.99294831079360E-04
 Sym=    11a   
 Ene= -.57697573435519E+00
 Spin= Alpha
 Occup= 2.000000
     1 0.70523349568957E-01
     2 0.16383270621124E+00
     3 0.12216738221491E+00
     4 -.14278211778875E+00
     5 0.21509179220004E+00
     6 -.14821999076569E+00
     7 0.10878624099532E+00
     8 -.11637260632195E+00
     9 0.11148781623247E+00
    10 0.67500488776530E-03
    11 -.13050231931770E-02
    12 0.63001830541169E-03
    13 0.10067614228387E-01
    14 -.48518475235407E-02
    15 0.10698481116151E-01
    16 0.26090405921143E-01
    17 0.60607202888472E-01
    18 0.45523670374033E-01
    19 0.20082902188969E+00
    20 0.14638962602246E+00
    21 0.60355902032389E-01
    22 -.12096217039630E+00
    23 -.70743037677033E-01
    24 -.27097018068788E-01
    25 -.15004397075123E-01
    26 0.75261022500484E-02
    27 0.74782948250742E-02
    28 -.69909795851012E-02
    29 0.38340894288292E-03
    30 0.59779107014788E-02
    31 0.21890640236258E-01
    32 0.50855303551185E-01
    33 0.37566829074495E-01
    34 0.70197089210401E-01
    35 0.16685488604566E+00
    36 0.20782443214259E+00
    37 -.33261139985815E-01
    38 -.84263601048185E-01
    39 -.12462257764551E+00
    40 0.70738125705336E-02
    41 0.88042657729300E-02
    42 -.15878078343464E-01
    43 0.62515207677540E-02
    44 -.26115242346996E-04
    45 -.72205230018541E-02
    46 -.11849474547146E+00
    47 -.27530576077890E+00
    48 -.20515297908388E+00
    49 -.45842001098390E-01
    50 -.34892070824785E+00
    51 -.24794106322736E-01
    52 0.43364483062792E-01
    53 0.25916974309267E+00
    54 0.30188767604138E-01
    55 -.37658014572607E-02
    56 0.76709452849493E-02
    57 -.39051438276885E-02
    58 0.55253632254149E-04
    59 0.21699383628343E-03
    60 -.12090863351221E-02
 Sym=    12a   
 Ene= -.57579653193111E+00
 Spin= Alpha
 Occup= 2.000000
     1 0.70410274981972E-01
     2 0.16379972990860E+00
     3 0.12095897850756E+00
     4 -.27327040107345E+00
     5 -.11225746400665E+00
     6 -.14156578054019E-01
     7 0.17985845162631E+00
     8 0.60729954384021E-01
     9 0.39408115915885E-01
    10 -.12443645104547E-01
    11 0.31815020245051E-02
    12 0.92621430800419E-02
    13 -.76291213222944E-02
    14 -.21069155787482E-02
    15 -.30417777168063E-02
    16 0.23706001284494E-01
    17 0.55218310165055E-01
    18 0.40596364930539E-01
    19 0.71386427691153E-01
    20 -.16271983691933E+00
    21 0.19249840723272E+00
    22 -.51278932084175E-01
    23 0.94864744909726E-01
    24 -.98997409144962E-01
    25 -.98639178206994E-03
    26 -.81859273607299E-02
    27 0.91723191427999E-02
    28 0.93090654871912E-02
    29 -.89660971616431E-02
    30 0.71751824255472E-02
    31 -.11822607064363E+00
    32 -.27474201860049E+00
    33 -.20338067385235E+00
    34 0.17609893126012E+00
    35 0.17718253039814E+00
    36 -.24878110498828E+00
    37 -.12111672855880E+00
    38 -.13218735205012E+00
    39 0.19599247182228E+00
    40 0.10882477355596E-02
    41 -.95163409223371E-03
    42 -.13661364332587E-03
    43 0.45309163929931E-02
    44 -.46760754441613E-02
    45 -.37759919552215E-02
    46 0.24622943696502E-01
    47 0.57360665711275E-01
    48 0.41792609028624E-01
    49 0.65960062243637E-02
    50 0.89013632579976E-02
    51 0.27229127329813E+00
    52 -.75929965389488E-02
    53 -.20059178632991E-01
    54 -.15203132572327E+00
    55 0.31925756197578E-02
    56 0.58513213865407E-02
    57 -.90438970062985E-02
    58 -.16296350264538E-03
    59 -.14097599261176E-02
    60 -.15729953081654E-01
 Sym=    13a   
 Ene= -.54974229638219E+00
 Spin= Alpha
 Occup= 2.000000
     1 -.20801387996511E-02
     2 -.54644606403503E-02
     3 -.12873720426920E-02
     4 0.16517645951246E+00
     5 0.23030374265383E+00
     6 -.15907719870151E+00
     7 -.11094478026750E+00
     8 -.15273538492992E+00
     9 0.10409805725878E+00
    10 0.56055531570809E-02
    11 0.76186574096257E-02
    12 -.13224210566707E-01
    13 0.14913169743623E-02
    14 0.45172001215461E-02
    15 0.13945367592669E-01
    16 0.12326408890473E-02
    17 0.27258556797678E-02
    18 0.20210652978291E-02
    19 -.15236203569778E+00
    20 -.29878587658342E+00
    21 0.36013726927398E-01
    22 0.10013445020872E+00
    23 0.19758755692874E+00
    24 -.23699054616697E-01
    25 0.74637795867743E-02
    26 -.16518463526751E-01
    27 0.90546839399764E-02
    28 0.18849313161273E-02
    29 -.40391331290955E-02
    30 -.10917119963569E-01
    31 -.11717655458096E-02
    32 -.32245790630845E-02
    33 -.33286744353875E-03
    34 0.30285606702778E+00
    35 -.22766006221140E-01
    36 0.11006236660743E+00
    37 -.20169913474573E+00
    38 0.14387750025343E-01
    39 -.72140072390166E-01
    40 0.33432599045248E-02
    41 0.58352062089861E-02
    42 -.91784661135108E-02
    43 -.14097732022043E-02
    44 -.16782278010616E-01
    45 0.47069635292418E-02
    46 0.22421168855108E-02
    47 0.51994729730980E-02
    48 0.31203727558805E-02
    49 -.32366359866097E+00
    50 0.86407663317286E-01
    51 0.11486676493934E-01
    52 0.21390964436082E+00
    53 -.58382895624074E-01
    54 -.78917316285425E-02
    55 -.10427216329614E-02
    56 -.54452840217590E-02
    57 0.64880056547205E-02
    58 0.13892591184099E-01
    59 0.11856289210043E-01
    60 -.53591725394603E-02
 Sym=    14a   
 Ene= -.54443099366899E+00
 Spin= Alpha
 Occup= 2.000000
     1 0.17543896671116E-02
     2 0.47129677202309E-02
     3 0.70925860606036E-03
     4 -.16994378711268E+00
     5 0.23590687062830E+00
     6 0.16539450246786E+00
     7 0.11503876394387E+00
     8 -.15785367202374E+00
     9 -.10934987785134E+00
    10 -.13541690358641E-01
    11 0.76647647292325E-02
    12 0.58769256294089E-02
    13 0.14135819407678E-01
    14 0.43315621574492E-02
    15 0.16333319527285E-02
    16 0.10035714496862E-02
    17 0.28350777838179E-02
    18 0.82049842255254E-04
    19 0.12328634370320E+00
    20 -.19287952505537E-01
    21 0.31249177120036E+00
    22 -.83298452794576E-01
    23 0.13517573434160E-01
    24 -.20824417068262E+00
    25 -.10082144271333E-01
    26 0.59885364278328E-02
    27 0.40936078435005E-02
    28 0.46999924944665E-02
    29 -.16773341264069E-01
    30 -.92737223996758E-03
    31 -.11350904531767E-02
    32 -.24893347158111E-02
    33 -.18843340946219E-02
    34 0.40242733679663E-01
    35 -.28289612282171E+00
    36 -.15234606319095E+00
    37 -.27095333671435E-01
    38 0.18966332841894E+00
    39 0.10267326182459E+00
    40 0.94745431560866E-02
    41 -.16033569619241E-01
    42 0.65590264631549E-02
    43 -.10644564818941E-01
    44 -.39092860939358E-02
    45 0.11626677060822E-02
    46 -.18161622910626E-02
    47 -.42072494668924E-02
    48 -.24125013552980E-02
    49 0.76047125740022E-02
    50 0.70663080720434E-01
    51 -.31784947301534E+00
    52 -.48336226462980E-02
    53 -.46323807747086E-01
    54 0.21316678463503E+00
    55 0.67172474002680E-02
    56 -.49326124298360E-02
    57 -.17846349704321E-02
    58 -.53063426791438E-02
    59 0.11759813974023E-01
    60 0.13264202685672E-01
 Sym=    15a   
 Ene= 0.18400233476620E+00
 Spin= Alpha
 Occup= 0.000000
     1 -.39622877526629E-02
     2 -.94086423389797E-02
     3 -.29963087108555E-01
     4 -.23314104049781E+00
     5 0.30746485736131E+00
     6 0.21560392756325E+00
     7 0.34251615541656E+00
     8 -.44381706891438E+00
     9 -.30550491329454E+00
    10 0.42950049066388E-02
    11 -.35154732208262E-02
    12 -.77953168581269E-03
    13 -.51323959485979E-02
    14 -.24226140515116E-02
    15 0.11189508112189E-02
    16 0.33080893393556E-02
    17 0.77736000297184E-02
    18 0.25875151183680E-01
    19 -.20945333937685E+00
    20 -.67809183490213E-01
    21 -.36793098246972E+00
    22 0.30845157086822E+00
    23 0.93985181408865E-01
    24 0.52961097518422E+00
    25 -.30300834065454E-02
    26 0.42244706482392E-02
    27 -.11943872416939E-02
    28 0.15728264473205E-02
    29 -.55854974559211E-02
    30 -.67888914895006E-03
    31 0.71005792656110E-03
    32 0.16989091236883E-02
    33 0.51919463928200E-02
    34 0.16341463505507E+00
    35 -.12924239418429E+00
    36 -.95844747751738E-02
    37 -.22843163608876E+00
    38 0.18297602350921E+00
    39 0.16620892321247E-01
    40 -.96434632369856E-03
    41 0.51881174488734E-03
    42 0.44553457881123E-03
    43 0.19098617213865E-02
    44 0.18354817017234E-02
    45 -.15776780772771E-03
    46 -.67090729555396E-04
    47 -.10898581636907E-03
    48 -.11122795810402E-02
    49 0.25160995958871E+00
    50 -.10007696391114E+00
    51 0.15035545226494E+00
    52 -.35494961076424E+00
    53 0.14099331959657E+00
    54 -.21320759807235E+00
    55 -.85085646801766E-04
    56 -.85931275503828E-03
    57 0.94439840184004E-03
    58 0.87281039067359E-03
    59 0.42909712363207E-02
    60 -.95194164582752E-04
 Sym=    16a   
 Ene= 0.18603953951023E+00
 Spin= Alpha
 Occup= 0.000000
     1 0.73383492076587E-03
     2 0.17397167060103E-02
     3 0.56009882982471E-02
     4 0.42408883527596E-01
     5 0.99436623365329E-02
     6 -.39158144133533E-01
     7 -.62232301697408E-01
     8 -.12619983420289E-01
     9 0.55323684668067E-01
    10 -.54948810509707E-03
    11 0.21096125204948E-03
    12 0.33852685304760E-03
    13 0.51060257912985E-03
    14 0.19351162575739E-03
    15 -.59187844390565E-03
    16 -.52398569063121E-03
    17 -.10993818821923E-02
    18 -.56786384723964E-02
    19 0.16429273070811E+00
    20 0.35246561292353E+00
    21 -.10226027640640E+00
    22 -.23825901480469E+00
    23 -.50597336294450E+00
    24 0.14670538023838E+00
    25 0.63684151380977E-03
    26 -.42931503638350E-02
    27 0.36563088500253E-02