[Molden Format]
[Title]
 Molden file created by orca_2mkl for BaseName=./N4

[Atoms] AU
N    1   7          0.9826575896         1.0015548510         0.9637603283 
N    2   7         -0.9826575896        -0.9826575896         0.9826575896 
N    3   7         -0.9826575896         0.9826575896        -0.9826575896 
N    4   7          0.9826575896        -0.9826575896        -0.9826575896 
[GTO]
  1 0
s   8 1.0 
    90726.8892100000         0.2644615843
    13590.5288010000         0.4949373694
     3092.9883781000         0.8551699161
      875.9987636200         1.3898736510
      285.7446998200         2.1216984479
      103.1191341700         2.9797034650
       40.1285567770         3.6227997909
       16.5280957040         3.4518402365
s   2 1.0 
       69.3909609830         1.6219974198
       20.4282005960         6.3380762249
s   1 1.0 
        7.1292587972         3.1095201639
s   1 1.0 
        3.1324304893         1.6781128930
s   1 1.0 
        0.9875577872         0.7060443478
s   1 1.0 
        0.3876572131         0.3501434400
s   1 1.0 
        0.1490988307         0.1710077411
p   5 1.0 
      150.0574267000        -1.8341596231
       35.4915994830        -2.4061666955
       11.2478642230        -2.6529700970
        4.0900305195        -2.4826646205
        1.6220573146        -1.8181284959
p   1 1.0 
        0.6644226153         0.8550580417
p   1 1.0 
        0.2709977007         0.2787064987
p   1 1.0 
        0.1068874998         0.0871161625
d   1 1.0 
        2.8370000000        17.6796605055
d   1 1.0 
        0.9680000000         2.6930967689
d   1 1.0 
        0.3350000000         0.4205314648
f   1 1.0 
        2.0270000000        27.9525230183
f   1 1.0 
        0.6850000000         2.4339063574
g   1 1.0 
        1.4270000000        17.5039221697

  2 0
s   8 1.0 
    90726.8892100000         0.2644615843
    13590.5288010000         0.4949373694
     3092.9883781000         0.8551699161
      875.9987636200         1.3898736510
      285.7446998200         2.1216984479
      103.1191341700         2.9797034650
       40.1285567770         3.6227997909
       16.5280957040         3.4518402365
s   2 1.0 
       69.3909609830         1.6219974198
       20.4282005960         6.3380762249
s   1 1.0 
        7.1292587972         3.1095201639
s   1 1.0 
        3.1324304893         1.6781128930
s   1 1.0 
        0.9875577872         0.7060443478
s   1 1.0 
        0.3876572131         0.3501434400
s   1 1.0 
        0.1490988307         0.1710077411
p   5 1.0 
      150.0574267000        -1.8341596231
       35.4915994830        -2.4061666955
       11.2478642230        -2.6529700970
        4.0900305195        -2.4826646205
        1.6220573146        -1.8181284959
p   1 1.0 
        0.6644226153         0.8550580417
p   1 1.0 
        0.2709977007         0.2787064987
p   1 1.0 
        0.1068874998         0.0871161625
d   1 1.0 
        2.8370000000        17.6796605055
d   1 1.0 
        0.9680000000         2.6930967689
d   1 1.0 
        0.3350000000         0.4205314648
f   1 1.0 
        2.0270000000        27.9525230183
f   1 1.0 
        0.6850000000         2.4339063574
g   1 1.0 
        1.4270000000        17.5039221697

  3 0
s   8 1.0 
    90726.8892100000         0.2644615843
    13590.5288010000         0.4949373694
     3092.9883781000         0.8551699161
      875.9987636200         1.3898736510
      285.7446998200         2.1216984479
      103.1191341700         2.9797034650
       40.1285567770         3.6227997909
       16.5280957040         3.4518402365
s   2 1.0 
       69.3909609830         1.6219974198
       20.4282005960         6.3380762249
s   1 1.0 
        7.1292587972         3.1095201639
s   1 1.0 
        3.1324304893         1.6781128930
s   1 1.0 
        0.9875577872         0.7060443478
s   1 1.0 
        0.3876572131         0.3501434400
s   1 1.0 
        0.1490988307         0.1710077411
p   5 1.0 
      150.0574267000        -1.8341596231
       35.4915994830        -2.4061666955
       11.2478642230        -2.6529700970
        4.0900305195        -2.4826646205
        1.6220573146        -1.8181284959
p   1 1.0 
        0.6644226153         0.8550580417
p   1 1.0 
        0.2709977007         0.2787064987
p   1 1.0 
        0.1068874998         0.0871161625
d   1 1.0 
        2.8370000000        17.6796605055
d   1 1.0 
        0.9680000000         2.6930967689
d   1 1.0 
        0.3350000000         0.4205314648
f   1 1.0 
        2.0270000000        27.9525230183
f   1 1.0 
        0.6850000000         2.4339063574
g   1 1.0 
        1.4270000000        17.5039221697

  4 0
s   8 1.0 
    90726.8892100000         0.2644615843
    13590.5288010000         0.4949373694
     3092.9883781000         0.8551699161
      875.9987636200         1.3898736510
      285.7446998200         2.1216984479
      103.1191341700         2.9797034650
       40.1285567770         3.6227997909
       16.5280957040         3.4518402365
s   2 1.0 
       69.3909609830         1.6219974198
       20.4282005960         6.3380762249
s   1 1.0 
        7.1292587972         3.1095201639
s   1 1.0 
        3.1324304893         1.6781128930
s   1 1.0 
        0.9875577872         0.7060443478
s   1 1.0 
        0.3876572131         0.3501434400
s   1 1.0 
        0.1490988307         0.1710077411
p   5 1.0 
      150.0574267000        -1.8341596231
       35.4915994830        -2.4061666955
       11.2478642230        -2.6529700970
        4.0900305195        -2.4826646205
        1.6220573146        -1.8181284959
p   1 1.0 
        0.6644226153         0.8550580417
p   1 1.0 
        0.2709977007         0.2787064987
p   1 1.0 
        0.1068874998         0.0871161625
d   1 1.0 
        2.8370000000        17.6796605055
d   1 1.0 
        0.9680000000         2.6930967689
d   1 1.0 
        0.3350000000         0.4205314648
f   1 1.0 
        2.0270000000        27.9525230183
f   1 1.0 
        0.6850000000         2.4339063574
g   1 1.0 
        1.4270000000        17.5039221697

[5D]
[9G]
[MO]
 Sym=     1a
 Ene= -1.57488806608967E+01
 Spin= Alpha
 Occup= 2.000000
  1       0.279231487713
  2      -0.000209714209
  3       0.185826521231
  4       0.084682414048
  5       0.005615594822
  6      -0.001851297111
  7       0.000903453141
  8       0.001081323370
  9       0.001090251782
 10       0.001072607752
 11       0.000938478126
 12       0.000967139076
 13       0.000913987639
 14      -0.000753380299
 15      -0.000725860132
 16      -0.000768518904
 17       0.000005199600
 18       0.000006825658
 19       0.000004216724
 20      -0.000002459576
 21       0.000041126533
 22       0.000043461336
 23      -0.000001671844
 24       0.000045259940
 25       0.000013485848
 26      -0.000038087693
 27      -0.000054332277
 28       0.000009142996
 29      -0.000067736246
 30       0.000005210001
 31       0.000270763801
 32       0.000253334759
 33       0.000005534126
 34       0.000242242692
 35      -0.000006023458
 36       0.000001397546
 37       0.000002937565
 38      -0.000001675443
 39       0.000016001234
 40       0.000007144631
 41      -0.000006395582
 42       0.000062027993
 43      -0.000044426544
 44      -0.000037800660
 45      -0.000006330620
 46       0.000046413295
 47      -0.000040481845
 48       0.000042231796
 49      -0.000009484275
 50       0.000006679039
 51       0.000005916509
 52       0.000001731415
 53      -0.000014722250
 54      -0.000017852646
 55       0.000015513541
 56       0.000004761838
 57      -0.000000105216
 58       0.265004055520
 59      -0.000195682108
 60       0.176348319268
 61       0.080396439627
 62       0.005210527513
 63      -0.001587604606
 64       0.001038749168
 65      -0.001014835406
 66      -0.001016606754
 67       0.001026055465
 68      -0.000883959341
 69      -0.000876197171
 70       0.000876484704
 71       0.000804528659
 72       0.000845502424
 73      -0.000834912741
 74       0.000004938785
 75       0.000006921540
 76      -0.000005800309
 77      -0.000000150805
 78      -0.000039249695
 79      -0.000037077994
 80       0.000000776168
 81       0.000038053508
 82       0.000005182228
 83       0.000046197359
 84       0.000036311140
 85      -0.000003753874
 86      -0.000048562476
 87      -0.000000365124
 88      -0.000275803871
 89      -0.000298068110
 90      -0.000014524819
 91       0.000282048980
 92      -0.000006977741
 93      -0.000003211044
 94      -0.000003601808
 95      -0.000000408965
 96       0.000016103333
 97      -0.000007066022
 98       0.000006922350
 99       0.000066161700
100       0.000035567100
101       0.000043365653
102       0.000008565262
103       0.000041524996
104       0.000055113044
105      -0.000048590956
106      -0.000009355160
107      -0.000005927498
108      -0.000006441341
109      -0.000001997200
110      -0.000017840727
111       0.000015967632
112      -0.000017766187
113       0.000008138684
114       0.000000547705
115       0.288441754711
116      -0.000219029282
117       0.191961767540
118       0.087457284475
119       0.005881147774
120      -0.002028708887
121       0.000820766763
122      -0.001127828635
123       0.001115388368
124      -0.001125484056
125      -0.000975682633
126       0.000985789732
127      -0.000980689439
128       0.000722742692
129      -0.000679949967
130       0.000691741608
131      -0.000011021308
132       0.000012589636
133      -0.000012312029
134      -0.000000000000
135       0.000046243457
136      -0.000047815247
137      -0.000000820229
138      -0.000046212367
139       0.000001687246
140      -0.000051995265
141       0.000067639125
142       0.000007950285
143       0.000060161162
144      -0.000007102365
145       0.000245320612
146      -0.000222177518
147       0.000010532785
148      -0.000238782818
149       0.000005465282
150      -0.000002217565
151       0.000003621093
152       0.000001336644
153       0.000016219905
154      -0.000005480589
155      -0.000005193375
156      -0.000055662891
157       0.000033275954
158      -0.000027915686
159       0.000007296481
160       0.000050451604
161       0.000043927732
162       0.000046379362
163      -0.000006200778
164       0.000005549530
165      -0.000005213585
166       0.000001558268
167       0.000016603145
168      -0.000015922481
169      -0.000014253113
170       0.000006313922
171      -0.000000038077
172       0.275105668523
173      -0.000205821013
174       0.183077649117
175       0.083439593957
176       0.005499185984
177      -0.001775314742
178       0.000949470650
179       0.001064156863
180      -0.001066028936
181      -0.001061957947
182       0.000923512358
183      -0.000915257554
184      -0.000928068969
185      -0.000768279996
186       0.000812543975
187       0.000740424559
188       0.000001650561
189       0.000000388024
190      -0.000002891327
191       0.000000908422
192      -0.000043869961
193       0.000041537115
194       0.000000824475
195      -0.000040095776
196      -0.000004966388
197       0.000059743293
198      -0.000049198443
199      -0.000003997984
200       0.000042385757
201      -0.000021152975
202      -0.000242888369
203       0.000266984800
204      -0.000015387895
205      -0.000281774008
206       0.000006506467
207       0.000003519665
208      -0.000004000646
209       0.000000420264
210       0.000016140573
211       0.000005727937
212       0.000005566742
213      -0.000061395784
214      -0.000025312462
215       0.000031200672
216      -0.000010741022
217       0.000045743804
218      -0.000057006773
219      -0.000052245807
220      -0.000006466920
221      -0.000005367586
222       0.000005250503
223      -0.000002161266
224       0.000018783524
225       0.000014534507
226       0.000016705773
227       0.000009099471
228      -0.000000161571
 Sym=     1a
 Ene= -1.57479712367012E+01
 Spin= Alpha
 Occup= 2.000000
  1      -0.170018948292
  2       0.000157131511
  3      -0.113269276810
  4      -0.051233682583
  5      -0.004804691922
  6       0.003350984773
  7       0.002006085408
  8      -0.000741328649
  9      -0.000699875871
 10      -0.000726654633
 11      -0.001026222186
 12      -0.000447347809
 13      -0.000897281530
 14      -0.001971194914
 15       0.000272928505
 16      -0.001492460008
 17      -0.000228848701
 18      -0.000092551935
 19      -0.000197148095
 20      -0.000020796442
 21      -0.000138531477
 22      -0.000011867319
 23      -0.000065615535
 24      -0.000038909741
 25       0.000083495807
 26       0.000479670469
 27      -0.000075235049
 28       0.000261940155
 29       0.000043351317
 30       0.000212356343
 31       0.001132102302
 32      -0.000153066572
 33       0.000655764741
 34       0.000118257213
 35      -0.000005758584
 36       0.000012949456
 37       0.000002946781
 38       0.000016832213
 39       0.000001194070
 40      -0.000004447747
 41      -0.000009642527
 42       0.000085858893
 43      -0.000360654374
 44       0.000072682066
 45      -0.000486423090
 46      -0.000045254493
 47       0.000152150152
 48       0.000072204529
 49      -0.000041697532
 50       0.000022391374
 51      -0.000002887125
 52       0.000119437752
 53       0.000005918272
 54      -0.000069002246
 55      -0.000027451819
 56      -0.000017458958
 57      -0.000007293630
 58      -0.082249531701
 59       0.000075466100
 60      -0.054794267934
 61      -0.024790638022
 62      -0.002289564674
 63       0.001549328338
 64       0.000899890081
 65       0.000318043503
 66       0.000362259443
 67      -0.000360533891
 68       0.000018131986
 69       0.000576188335
 70      -0.000521149583
 71      -0.000896513772
 72       0.001265912719
 73      -0.001045799031
 74      -0.000009921532
 75       0.000128601384
 76      -0.000117946673
 77      -0.000029765376
 78      -0.000016438574
 79       0.000108352786
 80       0.000063686249
 81       0.000004507913
 82       0.000115192951
 83       0.000131792396
 84      -0.000410075082
 85      -0.000250356839
 86      -0.000077432322
 87       0.000291309035
 88       0.000300991139
 89      -0.000956301371
 90      -0.000628043439
 91      -0.000174503365
 92      -0.000001665130
 93      -0.000002800162
 94      -0.000014453130
 95      -0.000018628689
 96       0.000000257345
 97      -0.000005173640
 98      -0.000009495421
 99       0.000054235465
100      -0.000056185156
101       0.000380257436
102       0.000476939668
103      -0.000016496968
104      -0.000000136646
105       0.000211454006
106      -0.000043166132
107       0.000004811438
108      -0.000023211813
109      -0.000118752196
110       0.000018772092
111      -0.000028264131
112      -0.000062973210
113      -0.000036787517
114       0.000005724696
115       0.464825030132
116      -0.000435342703
117       0.309688895477
118       0.140027030921
119       0.013286521407
120      -0.009285027571
121      -0.005686307116
122      -0.001999016053
123       0.001967076153
124      -0.001983873839
125      -0.002228448633
126       0.002115313651
127      -0.002099845756
128      -0.003313679052
129       0.002936189979
130      -0.002818260041
131      -0.000502717521
132       0.000480895160
133      -0.000471888058
134      -0.000011932226
135       0.000177803907
136      -0.000156851929
137       0.000010917632
138      -0.000184151590
139       0.000047248752
140      -0.000416067397
141       0.000330562569
142      -0.000039378704
143       0.000447897883
144       0.000111626497
145      -0.001073088824
146       0.000866646172
147      -0.000104304075
148       0.001144077937
149      -0.000020938624
150       0.000010120680
151      -0.000009142058
152       0.000002203739
153      -0.000005172174
154       0.000016643739
155       0.000018323397
156       0.000181595464
157      -0.000090946510
158       0.000028420926
159      -0.000070907460
160       0.000100331693
161      -0.000177139445
162      -0.000207411737
163       0.000032131600
164      -0.000013849414
165       0.000010759957
166      -0.000016974179
167      -0.000054697013
168       0.000044685758
169       0.000032071872
170      -0.000052884574
171      -0.000000208981
172      -0.235553887722
173       0.000218808198
174      -0.156932269340
175      -0.070976330265
176      -0.006640227066
177       0.004533385920
178       0.002703064205
179      -0.001013348444
180       0.001010626152
181       0.000971631781
182      -0.001261269003
183       0.001192118496
184       0.000752949958
185      -0.002176456604
186       0.001909602340
187       0.000215553073
188      -0.000283238959
189       0.000264723364
190       0.000155504675
191       0.000062918758
192       0.000058258129
193      -0.000042522930
194      -0.000007513746
195       0.000155851110
196      -0.000246059011
197      -0.000077401005
198       0.000008618302
199       0.000030486064
200      -0.000500325764
201      -0.000613689022
202      -0.000215714595
203       0.000060157643
204       0.000077471218
205      -0.001198560959
206       0.000012469678
207      -0.000006494553
208       0.000007990260
209      -0.000002313832
210       0.000002163347
211       0.000015175335
212       0.000016899815
213      -0.000033377165
214       0.000219159601
215      -0.000272985973
216       0.000060101807
217      -0.000053091716
218      -0.000325437661
219      -0.000351580828
220       0.000053480187
221       0.000005003060
222      -0.000008389326
223       0.000015021789
224       0.000073856558
225       0.000001626493
226      -0.000009457577
227       0.000106774871
228       0.000000762608
 Sym=     1a
 Ene= -1.57479568100616E+01
 Spin= Alpha
 Occup= 2.000000
  1       0.444543441193
  2      -0.000415689044
  3       0.296177670534
  4       0.133919510480
  5       0.012644133275
  6      -0.008720094534
  7      -0.005301491800
  8       0.001879647583
  9       0.001909280040
 10       0.001877640570
 11       0.001911663676
 12       0.002142679307
 13       0.002033481315
 14       0.002369050646
 15       0.003225219978
 16       0.002882115426
 17       0.000427000393
 18       0.000486666068
 19       0.000452861872
 20      -0.000000001005
 21       0.000140931865
 22       0.000189959993
 23      -0.000026809677
 24       0.000160952945
 25      -0.000002240015
 26      -0.000275540248
 27      -0.000489061045
 28       0.000104759573
 29      -0.000362199003
 30      -0.000013927940
 31      -0.000741371249
 32      -0.001231290265
 33       0.000258242555
 34      -0.000930881317
 35       0.000019825977
 36      -0.000009504697
 37      -0.000013732392
 38       0.000007479086
 39      -0.000005220092
 40      -0.000018406722
 41       0.000011902485
 42      -0.000185659635
 43       0.000034698166
 44       0.000199628025
 45      -0.000189514874
 46       0.000099533646
 47       0.000171220994
 48      -0.000080070077
 49       0.000046634056
 50      -0.000009857637
 51      -0.000018170487
 52       0.000045286899
 53       0.000037895479
 54       0.000023007051
 55      -0.000058816573
 56      -0.000030232568
 57      -0.000003255790
 58      -0.144622234772
 59       0.000134723964
 60      -0.096353185917
 61      -0.043574210127
 62      -0.004054225295
 63       0.002692506584
 64       0.001591669000
 65       0.000609003691
 66       0.000628635540
 67      -0.000591199449
 68       0.000672838043
 69       0.000902612109
 70      -0.000342415342
 71       0.000994145082
 72       0.001894767022
 73       0.000324837884
 74       0.000151478674
 75       0.000206444038
 76      -0.000062395404
 77       0.000061182198
 78      -0.000007258550
 79       0.000043155605
 80       0.000026980259
 81      -0.000120617642
 82      -0.000238827755
 83       0.000140261201
 84      -0.000078148925
 85      -0.000105852453
 86       0.000413533049
 87      -0.000603615477
 88       0.000301279645
 89      -0.000211964583
 90      -0.000266527903
 91       0.000990754133
 92      -0.000009226228
 93       0.000012978901
 94       0.000008098795
 95      -0.000007532841
 96       0.000002129364
 97      -0.000017795370
 98       0.000011297539
 99       0.000004072390
100      -0.000354155503
101      -0.000179177919
102       0.000193399044
103      -0.000039435357
104       0.000357420108
105      -0.000262223365
106       0.000061881326
107       0.000016234543
108       0.000005181020
109      -0.000047384519
110      -0.000065248277
111      -0.000031037504
112      -0.000006380737
113       0.000099560923
114       0.000004201812
115      -0.013743547275
116       0.000011910315
117      -0.009153810781
118      -0.004146979317
119      -0.000387880515
120       0.000315136339
121       0.000185618548
122       0.000069851797
123      -0.000029479555
124       0.000078715400
125       0.000199447225
126       0.000295035286
127       0.000318163332
128       0.000574916355
129       0.001343469789
130       0.001030549679
131       0.000042424269
132       0.000070928780
133       0.000073208265
134      -0.000046885842
135      -0.000085744430
136      -0.000022028381
137      -0.000055037937
138      -0.000049380388
139       0.000185624201
140       0.000367467746
141       0.000104932324
142       0.000219118560
143       0.000224079904
144       0.000466754085
145       0.000848034972
146       0.000252605446
147       0.000551712110
148       0.000525672791
149      -0.000002009373
150      -0.000013382748
151       0.000005010669
152      -0.000014029882
153      -0.000000667216
154       0.000011720104
155       0.000000091018
156      -0.000050167567
157       0.000415082327
158      -0.000043420693
159       0.000407708595
160       0.000003356153
161      -0.000294077499
162      -0.000113602598
163      -0.000058579335
164       0.000021787565
165       0.000001190860
166       0.000100765091
167      -0.000038660762
168      -0.000058355939
169       0.000019072876
170      -0.000066992913
171       0.000004726816
172      -0.297484648420
173       0.000277224161
174      -0.198195854550
175      -0.089627462915
176      -0.008425144059
177       0.005786440232
178       0.003485939639
179      -0.001241003320
180       0.001281422938
181       0.001265624687
182      -0.001077857733
183       0.001551737992
184       0.001435802503
185      -0.000768617518
186       0.002624821439
187       0.002166285476
188      -0.000233029647
189       0.000347124626
190       0.000322171053
191      -0.000014185402
192       0.000066339646
193      -0.000171013058
194       0.000055243511
195       0.000089458037
196       0.000057031727
197      -0.000065377293
198       0.000519436475
199      -0.000216320298
200      -0.000163826552
201       0.000147516864
202      -0.000199451019
203       0.001264244155
204      -0.000545408509
205      -0.000441155075
206       0.000012258464
207       0.000006448011
208      -0.000015592173
209       0.000016000251
210       0.000003108470
211       0.000013893165
212       0.000001172431
213      -0.000140095863
214       0.000030216760
215       0.000327921875
216      -0.000405148373
217      -0.000067200899
218      -0.000107289733
219       0.000077984781
220      -0.000049276038
221      -0.000001108811
222       0.000021300703
223      -0.000099252203
224       0.000012335104
225      -0.000006883975
226       0.000071258170
227      -0.000002246050
228      -0.000005425367
 Sym=     1a
 Ene= -1.57479298741798E+01
 Spin= Alpha
 Occup= 2.000000
  1      -0.051862041924
  2       0.000049926826
  3      -0.034557725004
  4      -0.015612258475
  5      -0.001494788634
  6       0.000993385488
  7       0.000624240641
  8      -0.000238735530
  9      -0.000227735489
 10      -0.000193089784
 11      -0.000469222154
 12      -0.000309138117
 13       0.000107148197
 14      -0.001308214430
 15      -0.000671667701
 16       0.000969243120
 17      -0.000115540931
 18      -0.000075756620
 19       0.000030890717
 20       0.000066016492
 21       0.000000936126
 22       0.000037813723
 23      -0.000018318115
 24      -0.000094575156
 25      -0.000255563008
 26      -0.000045594077
 27      -0.000204991152
 28       0.000071351806
 29       0.000366208284
 30      -0.000653012130
 31      -0.000082766299
 32      -0.000456772465
 33       0.000182479364
 34       0.000882155640
 35      -0.000005642515
 36      -0.000011925598
 37      -0.000015601365
 38       0.000005932473
 39       0.000001201064
 40       0.000010462229
 41      -0.000014834801
 42      -0.000046343255
 43       0.000246807901
 44       0.000374518816
 45      -0.000143108147
 46      -0.000005409144
 47      -0.000281192887
 48       0.000338055977
 49       0.000077000907
 50      -0.000007303954
 51      -0.000013895700
 52       0.000035807132
 53      -0.000063227541
 54       0.000005129095
 55      -0.000032318106
 56       0.000101640674
 57       0.000000199507
 58       0.457470838618
 59      -0.000425719780
 60       0.304787213396
 61       0.137828096546
 62       0.012918493371
 63      -0.008804295464
 64      -0.005285612442
 65      -0.001928977065
 66      -0.001921211294
 67       0.001956004608
 68      -0.002101608247
 69      -0.001941646748
 70       0.002165072579
 71      -0.002962749205
 72      -0.002330512888
 73       0.003154606226
 74      -0.000467298800
 75      -0.000427699378
 76       0.000478941049
 77       0.000016659938
 78      -0.000195107790
 79      -0.000158168495
 80       0.000017327541
 81       0.000147292736
 82      -0.000061364122
 83       0.000503904747
 84       0.000342025638
 85      -0.000069543675
 86      -0.000301353888
 87      -0.000164459384
 88       0.001253553132
 89       0.000879793243
 90      -0.000180393813
 91      -0.000777055109
 92       0.000018820950
 93       0.000016858107
 94       0.000013307456
 95      -0.000005523432
 96      -0.000004979092
 97       0.000011166839
 98      -0.000015065482
 99      -0.000192235822
100      -0.000250607110
101      -0.000119562454
102       0.000141122598
103       0.000106527792
104      -0.000040802348
105       0.000099027821
106       0.000061481624
107       0.000021339997
108       0.000012952803
109      -0.000035672444
110       0.000026649476
111      -0.000056725920
112       0.000029807348
113      -0.000012807196
114       0.000000728816
115      -0.087939123071
116       0.000083289464
117      -0.058592914265
118      -0.026481934274
119      -0.002548050017
120       0.001801625629
121       0.001134622418
122       0.000352105547
123      -0.000379467765
124       0.000397935903
125       0.000076566765
126      -0.000476591288
127       0.000674037527
128      -0.000703265422
129      -0.000885296868
130       0.001644136263
131       0.000015419576
132      -0.000110942365
133       0.000160758869
134      -0.000052249259
135      -0.000018241705
136       0.000108258340
137       0.000045963817
138      -0.000025779873
139       0.000204805844
140       0.000009642153
141      -0.000403169869
142      -0.000181537388
143       0.000180169672
144       0.000520708800
145       0.000048046746
146      -0.000969085755
147      -0.000461314764
148       0.000392684938
149       0.000001858145
150      -0.000009750690
151       0.000017744715
152       0.000013263838
153       0.000001447563
154      -0.000001592287
155       0.000009177800
156      -0.000084849678
157       0.000119425641
158      -0.000435475715
159      -0.000346271602
160      -0.000020316416
161      -0.000118899758
162      -0.000273605017
163      -0.000072621455
164       0.000004695236
165      -0.000025125714
166      -0.000086524934
167      -0.000035687631
168       0.000004993473
169      -0.000061118556
170      -0.000067648790
171      -0.000004291579
172      -0.295836741391
173       0.000277283259
174      -0.197104570501
175      -0.089113472932
176      -0.008450643845
177       0.005868422197
178       0.003599969569
179      -0.001268768874
180       0.001240227841
181       0.001267445017
182      -0.001482676059
183       0.001082216362
184       0.001509349207
185      -0.002416952142
186       0.000830625308
187       0.002517204899
188      -0.000336866084
189       0.000241205756
190       0.000345293608
191      -0.000028974044
192       0.000172555350
193      -0.000082124999
194      -0.000045367230
195       0.000075602854
196       0.000115616814
197      -0.000526049209
198       0.000131856422
199       0.000179024223
200      -0.000102828014
201       0.000297008058
202      -0.001293951972
203       0.000371020757
204       0.000459271501
205      -0.000309279553
206       0.000012048059
207       0.000018720730
208      -0.000010014698
209      -0.000013363604
210       0.000003733460
211       0.000000734670
212       0.000011572884
213      -0.000149163218
214      -0.000379697975
215       0.000060703898
216       0.000346089949
217      -0.000067188436
218       0.000114833591
219      -0.000039579665
220      -0.000065686210
221      -0.000027032483
222       0.000005752640
223       0.000086735348
224       0.000001977742
225       0.000070869069
226       0.000004721713
227      -0.000019738726
228       0.000004352255
 Sym=     1a
 Ene= -1.65183037627101E+00
 Spin= Alpha
 Occup= 2.000000
  1      -0.052849135330
  2      -0.007525546379
  3      -0.063668623587
  4      -0.036738051095
  5       0.124124008194
  6       0.191363648285
  7       0.034984825244
  8       0.035115685794
  9       0.035073078171
 10       0.035140691357
 11      -0.039504857691
 12      -0.039476611316
 13      -0.039517156864
 14      -0.021338156470
 15      -0.021427010593
 16      -0.021243656490
 17      -0.001191977648
 18      -0.001210540314
 19      -0.001173654137
 20       0.000001279646
 21       0.001285456588
 22       0.001268705012
 23       0.000001701332
 24       0.001252906501
 25      -0.000035592146
 26       0.007371815638
 27       0.007308882070
 28      -0.000016935036
 29       0.007247973947
 30      -0.000110389538
 31       0.007402811685