[Molden Format]
[Title]
N4                                                                              
[Atoms] AU
 n     1    7 0.12141712962000E+01 0.00000000000000E+00 0.11929119035000E+01
 n     2    7 -.13902703010000E+01 0.80233672640000E+00 0.58212322750000E+00
 n     3    7 0.58082277020000E+00 0.80233672640000E+00 -.13773978299000E+01
 n     4    7 -.40472376540000E+00 -.16046734527000E+01 -.39763730120000E+00
[GTO]
    1 0
 s    5 1.00
 0.17128415853000E+04 -.54477995804909E-02
 0.25764812677000E+03 -.40627174632423E-01
 0.58458245853000E+02 -.18111962250584E+00
 0.16198367905000E+02 -.46843975563173E+00
 0.50052600809000E+01 -.44616846289231E+00
 s    1 1.00
 0.58731856571000E+00 0.10000000000000E+01
 s    1 1.00
 0.18764592253000E+00 0.10000000000000E+01
 p    3 1.00
 0.13571470233000E+02 -.58848116969522E-01
 0.29257372874000E+01 -.32024624762471E+00
 0.79927750754000E+00 -.75328226520436E+00
 p    1 1.00
 0.21954348034000E+00 0.10000000000000E+01
 d    1 1.00
 0.10000000000000E+01 0.10000000000000E+01
 
    2 0
 s    5 1.00
 0.17128415853000E+04 -.54477995804909E-02
 0.25764812677000E+03 -.40627174632423E-01
 0.58458245853000E+02 -.18111962250584E+00
 0.16198367905000E+02 -.46843975563173E+00
 0.50052600809000E+01 -.44616846289231E+00
 s    1 1.00
 0.58731856571000E+00 0.10000000000000E+01
 s    1 1.00
 0.18764592253000E+00 0.10000000000000E+01
 p    3 1.00
 0.13571470233000E+02 -.58848116969522E-01
 0.29257372874000E+01 -.32024624762471E+00
 0.79927750754000E+00 -.75328226520436E+00
 p    1 1.00
 0.21954348034000E+00 0.10000000000000E+01
 d    1 1.00
 0.10000000000000E+01 0.10000000000000E+01
 
    3 0
 s    5 1.00
 0.17128415853000E+04 -.54477995804909E-02
 0.25764812677000E+03 -.40627174632423E-01
 0.58458245853000E+02 -.18111962250584E+00
 0.16198367905000E+02 -.46843975563173E+00
 0.50052600809000E+01 -.44616846289231E+00
 s    1 1.00
 0.58731856571000E+00 0.10000000000000E+01
 s    1 1.00
 0.18764592253000E+00 0.10000000000000E+01
 p    3 1.00
 0.13571470233000E+02 -.58848116969522E-01
 0.29257372874000E+01 -.32024624762471E+00
 0.79927750754000E+00 -.75328226520436E+00
 p    1 1.00
 0.21954348034000E+00 0.10000000000000E+01
 d    1 1.00
 0.10000000000000E+01 0.10000000000000E+01
 
    4 0
 s    5 1.00
 0.17128415853000E+04 -.54477995804909E-02
 0.25764812677000E+03 -.40627174632423E-01
 0.58458245853000E+02 -.18111962250584E+00
 0.16198367905000E+02 -.46843975563173E+00
 0.50052600809000E+01 -.44616846289231E+00
 s    1 1.00
 0.58731856571000E+00 0.10000000000000E+01
 s    1 1.00
 0.18764592253000E+00 0.10000000000000E+01
 p    3 1.00
 0.13571470233000E+02 -.58848116969522E-01
 0.29257372874000E+01 -.32024624762471E+00
 0.79927750754000E+00 -.75328226520436E+00
 p    1 1.00
 0.21954348034000E+00 0.10000000000000E+01
 d    1 1.00
 0.10000000000000E+01 0.10000000000000E+01
 
[MO]
 Sym=     1a   
 Ene= -.16141493885255E+02
 Spin= Alpha
 Occup= 1.000000
     1 0.87679357161399E-01
     2 -.32963907060561E-02
     3 -.21775628670827E-02
     4 -.38453788841083E-03
     5 -.87568518084683E-04
     6 -.16315442382489E-03
     7 -.92301159170322E-03
     8 -.95890145582820E-03
     9 0.14113547375327E-02
    10 -.18201491596427E-03
    11 -.20469973820336E-03
    12 0.38671465416763E-03
    13 -.70916471541956E-04
    14 0.25346369721921E-03
    15 -.20322151535284E-03
    16 0.41866323124033E-02
    17 -.44765071014475E-03
    18 -.44980946753868E-02
    19 0.56247147083414E-04
    20 -.12309698475243E-03
    21 0.52264657855631E-04
    22 -.11388692642772E-02
    23 -.81955200559891E-03
    24 0.17269409413296E-02
    25 0.20839759051326E-03
    26 -.26290292064972E-03
    27 0.54505330136461E-04
    28 -.74511498680392E-04
    29 -.42763008307951E-03
    30 0.46773101643186E-04
    31 0.98690980520310E+00
    32 -.33873042723352E-01
    33 0.21520852814915E-01
    34 -.19097563807391E-02
    35 -.19651993952556E-02
    36 0.28136928566239E-02
    37 -.30576537766152E-02
    38 -.37537079523148E-02
    39 0.60964842258801E-02
    40 0.29719931829201E-04
    41 0.22822579459947E-04
    42 -.52542511289148E-04
    43 0.65829165606463E-06
    44 -.14960511880840E-04
    45 0.21044564809665E-04
    46 0.41529436598776E-02
    47 -.45289684054811E-03
    48 -.44700677508212E-02
    49 -.20555991809617E-04
    50 0.64274401713324E-04
    51 0.12584486915139E-03
    52 -.91543947999461E-03
    53 -.13249016083682E-02
    54 0.15216741896811E-02
    55 -.16360182972862E-03
    56 0.37517339820222E-03
    57 -.21157156847360E-03
    58 0.30167702724342E-03
    59 -.57259001791951E-04
    60 -.17890003464113E-03
 Sym=     2a   
 Ene= -.16139477979999E+02
 Spin= Alpha
 Occup= 1.000000
     1 0.98691838802226E+00
     2 -.33751225229724E-01
     3 0.22149279531467E-01
     4 -.31553936328801E-02
     5 -.27065901625966E-03
     6 -.24283952380091E-02
     7 -.57263034002136E-02
     8 -.42742327799420E-04
     9 -.55326319345281E-02
    10 0.56253179235678E-04
    11 0.62097499598452E-04
    12 -.11835067883413E-03
    13 0.48207810694297E-05
    14 -.50579743659307E-04
    15 0.58377381293106E-04
    16 0.35264188058967E-02
    17 -.37154043946720E-03
    18 -.37868761865627E-02
    19 0.24741051825833E-04
    20 -.52326833193400E-04
    21 -.12962936491167E-03
    22 -.16963091831744E-02
    23 0.25515847792118E-03
    24 -.15236373733488E-02
    25 0.38988218666042E-03
    26 -.14272474193448E-03
    27 -.24715744472593E-03
    28 -.25741817776508E-03
    29 0.13810064938243E-03
    30 -.40193231831174E-04
    31 -.87567640680860E-01
    32 0.26808151308771E-02
    33 -.59686396544922E-02
    34 0.45596037918669E-04
    35 0.13380578653733E-03
    36 -.27430077285346E-03
    37 -.10663999294241E-02
    38 0.49216671704816E-03
    39 -.22124866037441E-02
    40 -.25029117144723E-03
    41 -.18215051438016E-03
    42 0.43244168582740E-03
    43 -.44531049811899E-04
    44 0.12453711634864E-03
    45 -.28106084557682E-03
    46 0.36452213172306E-02
    47 -.39491836014217E-03
    48 -.37164709775280E-02
    49 -.58915101552881E-04
    50 0.11292700799988E-03
    51 -.71706131695048E-04
    52 -.15063205942954E-02
    53 -.16439436382532E-03
    54 -.17041505631788E-02
    55 -.16779538593603E-04
    56 0.41766615002401E-04
    57 -.24987076408798E-04
    58 0.28817295279180E-03
    59 0.25709437259667E-03
    60 0.32848210026417E-03
 Sym=     1a   
 Ene= -.16118592126721E+02
 Spin= Beta
 Occup= 1.000000
     1 0.24323355997839E-01
     2 -.96817298430505E-03
     3 -.37242480739023E-02
     4 -.22478690554728E-03
     5 -.13798839622847E-03
     6 0.12636920572030E-03
     7 -.34257015285161E-03
     8 -.86230834264016E-03
     9 0.17460155686413E-02
    10 -.18787914403566E-03
    11 -.19803855445263E-03
    12 0.38591769848829E-03
    13 -.57851702226388E-04
    14 0.21778808171952E-03
    15 -.21444587187809E-03
    16 0.10108688255620E-01
    17 -.65249975070589E-03
    18 -.35783489890827E-02
    19 0.61554959316231E-04
    20 -.12374029055674E-03
    21 0.55280307004704E-04
    22 -.75471867110182E-03
    23 -.80386859837646E-03
    24 0.16315212153003E-02
    25 0.17460916665536E-03
    26 -.25164452107038E-03
    27 0.77035354415020E-04
    28 -.61664516882547E-04
    29 -.43503183134458E-03
    30 0.46448380340343E-04
    31 0.99108378915195E+00
    32 -.31582320215658E-01
    33 0.20167973566034E-01
    34 -.16159951465367E-02
    35 -.18552511166682E-02
    36 0.28667448405311E-02
    37 -.26654631970520E-02
    38 -.34329123671435E-02
    39 0.57083048230672E-02
    40 0.14393825089255E-04
    41 -.13743544911239E-03
    42 0.12304162402313E-03
    43 -.70433848342113E-04
    44 0.31786540392048E-03
    45 0.52480831659671E-04
    46 0.96437437729670E-02
    47 -.64350592060829E-03
    48 -.35382251743316E-02
    49 -.17374492045906E-04
    50 0.62941748703853E-04
    51 0.13154969004700E-03
    52 -.63825709565199E-03
    53 -.10321908074773E-02
    54 0.15363516759962E-02
    55 -.17035026302398E-03
    56 0.37292991984251E-03
    57 -.20257965681852E-03
    58 0.27901799345852E-03
    59 -.74451274865978E-04
    60 -.20314379247594E-03
 Sym=     2a   
 Ene= -.16117812108980E+02
 Spin= Beta
 Occup= 1.000000
     1 0.99109226825966E+00
     2 -.31530992770857E-01
     3 0.20242891920679E-01
     4 -.29082738809150E-02
     5 -.15314239419534E-03
     6 -.24928522912924E-02
     7 -.52191421063616E-02
     8 -.62154944101253E-04
     9 -.49859743289479E-02
    10 -.16403578820340E-03
    11 -.66645296342620E-05
    12 0.17070031783766E-03
    13 0.45754254195402E-04
    14 -.22917431229627E-03
    15 -.19583991965460E-03
    16 0.92474850125387E-02
    17 -.60825931742743E-03
    18 -.34105503724669E-02
    19 0.28269454733075E-04
    20 -.64971864179809E-04
    21 -.12962880922374E-03
    22 -.14337425749185E-02
    23 0.15212041295412E-03
    24 -.13597871910166E-02
    25 0.40119829098538E-03
    26 -.16240558557472E-03
    27 -.23879270541066E-03
    28 -.26779344871719E-03
    29 0.11718213631160E-03
    30 -.36882299164079E-04
    31 -.24347246977002E-01
    32 0.54696464433444E-03
    33 -.46030575288758E-02
    34 -.18599393582842E-03
    35 0.83478564907458E-05
    36 -.21781721863564E-03
    37 -.10702610126424E-02
    38 0.32284125289239E-03
    39 -.18014018440953E-02
    40 -.22609383826159E-03
    41 -.17819424205677E-03
    42 0.40428808031837E-03
    43 -.40349412035436E-04
    44 0.12995565683717E-03
    45 -.26051713058503E-03
    46 0.96386888567700E-02
    47 -.63780932024211E-03
    48 -.33502866832436E-02
    49 -.61785641286477E-04
    50 0.12314310210332E-03
    51 -.61298037859501E-04
    52 -.13306775226278E-02
    53 -.62707261957079E-04
    54 -.14557057634973E-02
    55 -.31259828912815E-04
    56 0.64831986076038E-04
    57 -.33572157163222E-04
    58 0.30284980908925E-03
    59 0.25966826681105E-03
    60 0.31702084077174E-03
 Sym=     3a   
 Ene= -.16098570123899E+02
 Spin= Beta
 Occup= 1.000000
     1 -.11907426000057E-01
     2 0.50852032758002E-05
     3 -.52587528469214E-02
     4 0.45856080664109E-04
     5 0.15027422728172E-04
     6 -.14295976101356E-03
     7 0.20652177210676E-02
     8 -.28891540503201E-03
     9 -.16204152717269E-03
    10 0.38484160440744E-03
    11 -.21092374987441E-03
    12 -.17391785453302E-03
    13 -.95947813382103E-04
    14 0.32567416523604E-03
    15 0.29345860442137E-04
    16 0.94294815290638E+00
    17 -.31395255735808E-01
    18 0.18941261680356E-01
    19 0.31691151608621E-02
    20 -.18372041254084E-02
    21 -.13607823833051E-02
    22 0.60061384155585E-02
    23 -.28263718969897E-02
    24 -.23370258511707E-02
    25 -.41340060969470E-04
    26 0.10555712553716E-03
    27 -.64217064567690E-04
    28 -.13357858539513E-04
    29 0.10677575669524E-04
    30 0.70285712394074E-04
    31 -.12128083018531E-01
    32 -.11049535797316E-04
    33 -.51620311476518E-02
    34 0.10955521452101E-03
    35 -.59676038455535E-04
    36 0.72526657815745E-04
    37 0.18836220253384E-02
    38 -.95342479145840E-04
    39 -.82627751485949E-03
    40 0.43273399017743E-04
    41 -.15446070304123E-03
    42 0.11118730402348E-03
    43 0.12781200209324E-03
    44 -.46953757426850E-03
    45 -.14370432815644E-03
    46 0.30479587243956E+00
    47 -.10432058805550E-01
    48 0.28875638931097E-02
    49 0.41047761165221E-03
    50 0.12280064042145E-02
    51 0.28105329927299E-03
    52 0.20864118491019E-02
    53 0.11115690751310E-02
    54 -.14214512115700E-03
    55 -.16486642395498E-03
    56 0.32271093036330E-03
    57 -.15784450640832E-03
    58 -.21372755213894E-03
    59 -.86934246044992E-04
    60 0.25375643963784E-03
 Sym=     4a   
 Ene= -.16098005010356E+02
 Spin= Beta
 Occup= 1.000000
     1 -.63900351221290E-02
     2 -.44700841445656E-06
     3 -.26816971579342E-02
     4 -.17756391898037E-04
     5 0.13808875528745E-03
     6 -.92408737289705E-05
     7 0.14464503485789E-03
     8 0.20931365676974E-02
     9 0.80384699596651E-03
    10 -.77478455978604E-04
    11 0.54336669658328E-05
    12 0.72044789012771E-04
    13 0.32141375106935E-03
    14 0.24409565084406E-03
    15 0.27498914296814E-03
    16 -.30484712014462E+00
    17 0.98241595479321E-02
    18 -.10239702908582E-01
    19 -.90441723494767E-03
    20 0.67027007570743E-03
    21 0.43469200133801E-03
    22 -.16693215446952E-02
    23 0.30836784396045E-02
    24 0.13523397921028E-02
    25 -.10363378385741E-03
    26 0.24691209091693E-03
    27 -.14327830705953E-03
    28 -.33156423068977E-03
    29 -.15029905177004E-03
    30 0.25447472362827E-03
    31 -.58237691180340E-02
    32 -.10132216638444E-04
    33 -.26855088487246E-02
    34 0.26097074928828E-05
    35 0.10764369108167E-03
    36 0.10100722922930E-03
    37 0.50082544831257E-04
    38 0.21986071890189E-02
    39 0.46033591157785E-03
    40 -.17104094957530E-03
    41 0.33162370087765E-03
    42 -.16058275130235E-03
    43 0.24281791699963E-03
    44 -.15218746034956E-05
    45 -.28075662544760E-03
    46 0.94295806684127E+00
    47 -.31243083000882E-01
    48 0.21449971048195E-01
    49 0.85058628345158E-03
    50 0.36763699221563E-02
    51 0.93360514562789E-03
    52 0.12220002730278E-02
    53 0.73054086397672E-02
    54 0.19645134761894E-02
    55 0.14290312091165E-03
    56 -.19483524592226E-03
    57 0.51932125010605E-04
    58 0.43538604432300E-04
    59 -.51061003963689E-05
    60 -.10980219426022E-03
 Sym=     3a   
 Ene= -.16094533037215E+02
 Spin= Alpha
 Occup= 1.000000
     1 -.50173997508256E-02
     2 -.23514822187432E-03
     3 -.52944683500680E-02
     4 0.21187036138622E-05
     5 0.40099848302512E-05
     6 -.11645159268507E-03
     7 0.19754729410987E-02
     8 -.36803510283787E-04
     9 -.10967135725418E-03
    10 0.35899148552992E-03
    11 -.20840012286898E-03
    12 -.15059136266095E-03
    13 -.62675085878249E-04
    14 0.35625047028206E-03
    15 0.50922457465942E-04
    16 0.90080986308053E+00
    17 -.29543573655309E-01
    18 0.17227412848786E-01
    19 0.29466527716811E-02
    20 -.17552221562698E-02
    21 -.12859614138580E-02
    22 0.56436981212345E-02
    23 -.23909608669214E-02
    24 -.21214664001560E-02
    25 -.90956047968538E-04
    26 0.83213629120772E-04
    27 0.77424188477668E-05
    28 -.66693478866610E-04
    29 0.35579720731976E-05
    30 0.42781090064017E-04
    31 -.49145571691588E-02
    32 -.25908655293262E-03
    33 -.52237877496946E-02
    34 0.64843856761206E-04
    35 -.62426884627551E-04
    36 0.77434057490808E-04
    37 0.18140323536949E-02
    38 0.13552064523590E-03
    39 -.71154626667606E-03
    40 0.12041526451498E-04
    41 -.11786344900843E-03
    42 0.10582192255693E-03
    43 0.15059577356418E-03
    44 -.45299599762931E-03
    45 -.17739303213214E-03
    46 0.41370215941044E+00
    47 -.13830807717794E-01
    48 0.52737374630173E-02
    49 0.47442846448959E-03
    50 0.16212035296711E-02
    51 0.38680809840599E-03
    52 0.21579732207986E-02
    53 0.19378838541158E-02
    54 0.94820160239530E-04
    55 -.17232678356972E-03
    56 0.28624239494598E-03
    57 -.11391561137626E-03
    58 -.20646477960368E-03
    59 -.66684001183607E-04
    60 0.21753219091723E-03
 Sym=     4a   
 Ene= -.16094043620129E+02
 Spin= Alpha
 Occup= 1.000000
     1 -.19442472962813E-02
     2 -.94659535182118E-04
     3 -.19610896564729E-02
     4 -.38524091530131E-04
     5 0.12848209586587E-03
     6 0.12220572005468E-04
     7 -.11036217329388E-03
     8 0.20617597174098E-02
     9 0.78539134017427E-03
    10 -.12436344231341E-03
    11 0.21748519913147E-04
    12 0.10261492240027E-03
    13 0.32635315038508E-03
    14 0.19900407495243E-03
    15 0.27123834083410E-03
    16 -.41361642920279E+00
    17 0.13208817852954E-01
    18 -.12140076149875E-01
    19 -.12282800914458E-02
    20 0.88829929171963E-03
    21 0.58590072058946E-03
    22 -.23088407113937E-02
    23 0.32967804777650E-02
    24 0.15767378422087E-02
    25 -.81050161065059E-04
    26 0.25695833461587E-03
    27 -.17590817355081E-03
    28 -.32437368994864E-03
    29 -.15670975639637E-03
    30 0.27195628328022E-03
    31 -.17873689237212E-02
    32 -.91497307592898E-04
    33 -.19742770917756E-02
    34 -.29480697928855E-04
    35 0.10829942924889E-03
    36 0.81913018053507E-04
    37 -.17485526295057E-03
    38 0.21345694472352E-02
    39 0.56096432807941E-03
    40 -.17364833306453E-03
    41 0.34336336742622E-03
    42 -.16971503436169E-03
    43 0.21605376172428E-03
    44 0.55639920523279E-04
    45 -.26920959749007E-03
    46 0.90075765698755E+00
    47 -.29319889351567E-01
    48 0.20525828877927E-01
    49 0.72247403803292E-03
    50 0.34450997801048E-02
    51 0.89230477709281E-03
    52 0.95820922290372E-03
    53 0.69591406715010E-02
    54 0.19185667219622E-02
    55 0.11172306342089E-03
    56 -.26315470404049E-03
    57 0.15143164061960E-03
    58 0.70945298303383E-04
    59 0.49508280446271E-04
    60 -.18966432722871E-03
 Sym=     5a   
 Ene= -.20408850828213E+01
 Spin= Alpha
 Occup= 1.000000
     1 0.13878026380810E+00
     2 0.28972798054827E+00
     3 0.72599187381751E-01
     4 0.10622715635555E+00
     5 0.30874737117505E-02
     6 0.98015797039844E-01
     7 -.31720150367673E-01
     8 -.12246242133007E-02
     9 -.27947511428145E-01
    10 0.28724282514983E-02
    11 -.75813260474887E-02
    12 0.47088977959905E-02
    13 0.57971463610716E-03
    14 0.11193231698802E-01
    15 -.14835027489402E-02
    16 0.12178702496733E+00
    17 0.24669538541712E+00
    18 0.52061500898784E-01
    19 -.10624813706226E+00
    20 0.63001334729976E-01
    21 0.45691977952144E-01
    22 0.26604423894181E-01
    23 -.17551333087329E-01
    24 -.11798529590475E-01
    25 0.66449027833178E-02
    26 -.21426979318521E-02
    27 -.45022048514657E-02
    28 -.88985189073093E-02
    29 -.64612075453271E-02
    30 0.38803052649860E-02
    31 0.13988505207743E+00
    32 0.29200523752955E+00
    33 0.73720682241431E-01
    34 0.55713981919692E-01
    35 0.70067186887234E-01
    36 -.11408528356997E+00
    37 -.17071814038107E-01
    38 -.20688226309304E-01
    39 0.33135084197272E-01
    40 -.42968925931726E-02
    41 -.34243521521067E-02
    42 0.77212447452793E-02
    43 0.39448574644802E-02
    44 -.48798605399894E-02
    45 -.94531518050511E-02
    46 0.12263319113594E+00
    47 0.24828988491715E+00
    48 0.53098383952570E-01
    49 -.30460387260967E-01
    50 -.12519365608567E+00
    51 -.31125689822398E-01
    52 0.63608700309128E-02
    53 0.32863776921095E-01
    54 0.86156382708514E-02
    55 -.55118230484067E-02
    56 0.11296523091773E-01
    57 -.57847000433667E-02
    58 0.51996776599217E-02
    59 0.12163362886602E-02
    60 0.52134142906859E-02
 Sym=     5a   
 Ene= -.20103273150757E+01
 Spin= Beta
 Occup= 1.000000
     1 0.12518905553867E+00
     2 0.25723404580968E+00
     3 0.49672655201592E-01
     4 0.10096073868864E+00
     5 0.48081381652246E-03
     6 0.98793288064226E-01
     7 -.23468917105122E-01
     8 0.40005837371207E-03
     9 -.24059828275492E-01
    10 0.50074304879908E-02
    11 -.65011909044122E-02
    12 0.14937604164215E-02
    13 -.59157602846073E-03
    14 0.13760392742573E-01
    15 0.20039525207833E-02
    16 0.13259383517616E+00
    17 0.27174213087634E+00
    18 0.73885670595834E-01
    19 -.11531622003016E+00
    20 0.67336144340815E-01
    21 0.49185117879490E-01
    22 0.36749289679928E-01
    23 -.19019061383336E-01
    24 -.14839358451478E-01
    25 0.69241967595753E-02
    26 -.27795400373862E-02
    27 -.41446567221892E-02
    28 -.96078180775689E-02
    29 -.68744217536127E-02
    30 0.36613185741001E-02
    31 0.12634302215560E+00
    32 0.25927668402503E+00
    33 0.52669543095895E-01
    34 0.48310776428987E-01
    35 0.67502150931256E-01
    36 -.11480254940746E+00
    37 -.11022206929699E-01
    38 -.16322597988103E-01
    39 0.28959360493579E-01
    40 -.47210794126096E-02
    41 -.84949904038434E-03
    42 0.55705784529940E-02
    43 0.42415643194813E-02
    44 -.94639925242794E-02
    45 -.94868685582017E-02
    46 0.13339921110527E+00
    47 0.27325652248651E+00
    48 0.75076864306531E-01
    49 -.33690979963048E-01
    50 -.13503157800163E+00
    51 -.33336027813325E-01
    52 0.12440286329015E-01
    53 0.41617900834621E-01
    54 0.10058062268653E-01
    55 -.62743320715876E-02
    56 0.11845174786649E-01
    57 -.55708427150618E-02
    58 0.57053572667170E-02
    59 0.16727466612076E-02
    60 0.51745347583362E-02
 Sym=     6a   
 Ene= -.14387574544019E+01
 Spin= Alpha
 Occup= 1.000000
     1 -.19913404358526E+00
     2 -.44242514816768E+00
     3 -.34866363555869E+00
     4 -.93966835699884E-01
     5 -.71900017330570E-01
     6 0.79823643802810E-01
     7 0.86293206486617E-01
     8 0.19842842225820E-01
     9 0.37085192400529E-01
    10 -.70714730250915E-02
    11 0.16083138872000E-02
    12 0.54631591378916E-02
    13 -.42719836717417E-02
    14 -.46221629967741E-03
    15 -.20494630121135E-02
    16 0.35315292870044E-02
    17 0.78153134356596E-02
    18 0.44503038345160E-02
    19 0.38283549294590E-01
    20 -.47025028821971E-01
    21 0.15662340795146E+00
    22 -.60707892982768E-02
    23 0.77416929006690E-02
    24 -.27318654361915E-01
    25 -.61596054029804E-02
    26 -.34040344906723E-02
    27 0.95636398936526E-02
    28 0.59853610464309E-02
    29 -.13037789116176E-01
    30 0.48511720770051E-02
    31 0.19669131594851E+00
    32 0.43807903077873E+00
    33 0.34462779443803E+00
    34 0.13481172430764E+00
    35 0.27138426724163E-01
    36 0.68836363864273E-01
    37 -.65663234602894E-01
    38 -.46723659860968E-01
    39 0.47431719294969E-01
    40 0.50473991217435E-02
    41 -.12955742573691E-03
    42 -.49178416960066E-02
    43 0.53414806735018E-02
    44 -.45625152358396E-02
    45 -.10266366784516E-03
    46 -.23249287532672E-03
    47 -.56944945250644E-03
    48 0.62333142495347E-03
    49 0.41496683147851E-01
    50 -.48631110495918E-01
    51 0.15716874223782E+00
    52 -.72128916637579E-02
    53 0.86260607915376E-02
    54 -.27037394335312E-01
    55 -.24329480432164E-02
    56 0.83381536488436E-02
    57 -.59052056056273E-02
    58 -.23878916855446E-02
    59 -.64086676539271E-02
    60 -.14411393008385E-01
 Sym=     7a   
 Ene= -.13993031104432E+01
 Spin= Alpha
 Occup= 1.000000
     1 -.13023033423089E+00
     2 -.28568370802668E+00
     3 -.24957039542204E+00
     4 0.10602894337802E+00
     5 0.81477409424289E-01
     6 -.11197342077432E+00
     7 0.21943375691398E-01
     8 -.17007844919737E-01
     9 0.67668527397117E-01
    10 0.13942402666777E-01
    11 0.16531147858302E-02
    12 -.15595517452607E-01
    13 0.47238535538749E-02
    14 -.26256494794338E-03
    15 0.80944800773504E-02
    16 0.14200505468385E+00
    17 0.30558533308492E+00
    18 0.26659597266508E+00
    19 0.58429362297747E-01
    20 0.14380748631168E+00
    21 0.28545450240987E-01
    22 0.45849896614224E-01
    23 -.61990410590248E-01
    24 -.30490308477492E-01
    25 -.91857719815571E-02
    26 0.10855436740040E-01
    27 -.16696647584828E-02
    28 -.77413552066057E-02
    29 -.45808393787292E-03
    30 0.69794470430321E-02
    31 -.13580524266535E+00
    32 -.29792524520964E+00
    33 -.26182213027987E+00
    34 0.14875624199757E+00
    35 0.20897220041141E-01
    36 0.75015818887823E-01
    37 -.86278535550410E-02
    38 0.26811178700038E-01
    39 -.68165755773959E-01
    40 0.90325690481531E-02
    41 0.39415336409087E-02
    42 -.12974102689062E-01
    43 0.73278150272519E-02
    44 -.11604033768293E-01
    45 0.31413547907150E-02
    46 0.13093673733737E+00
    47 0.28178623247549E+00
    48 0.24771882119223E+00
    49 0.14626410319290E+00
    50 -.52682046883153E-01
    51 -.54299289920306E-01
    52 -.13562271603288E-01
    53 0.73010426122540E-01
    54 0.26059322326195E-01
    55 -.58536240580267E-02
    56 0.67710538825123E-02
    57 -.91742982448568E-03
    58 -.12461589751296E-01
    59 -.30609176875403E-02
    60 0.69182671027844E-02
 Sym=     6a   
 Ene= -.13803324410150E+01
 Spin= Beta
 Occup= 1.000000
     1 0.14214255110149E-01
     2 0.30722803598316E-01
     3 0.25575537957368E-01
     4 -.69113613916516E-01
     5 0.17666792335860E+00
     6 0.73333882710867E-01
     7 0.10944339950625E-01
     8 -.38239528348416E-01
     9 -.20596674285660E-01
    10 -.88462348979069E-02
    11 0.71181659585443E-03
    12 0.81344183020525E-02
    13 0.12814923070518E-01
    14 0.85730244476160E-03
    15 0.12155301665538E-01
    16 -.19380489675598E+00
    17 -.42054536821966E+00
    18 -.36964480935308E+00
    19 0.77459626932992E-01
    20 0.85775088202314E-01
    21 -.42245313264422E-02
    22 -.91987874620430E-01
    23 0.26882472171129E-01
    24 0.33350925563454E-01
    25 -.87716178547561E-02
    26 0.92027538821889E-02
    27 -.43113602743282E-03
    28 -.22239966686857E-02
    29 0.28454602193994E-02
    30 0.35964039961566E-02
    31 -.54410201133757E-02
    32 -.11152818293996E-01
    33 -.12281555145519E-01
    34 -.81309922824404E-01
    35 0.17463333821567E+00
    36 0.69305012222356E-01
    37 0.18865234705926E-01
    38 -.36415136355271E-01
    39 -.18353925731988E-01
    40 -.53508512483060E-02
    41 0.14517393438533E-01
    42 -.91665421902271E-02
    43 0.28371488288293E-02
    44 0.91261460558520E-02
    45 -.10409802541255E-01
    46 0.18483883711039E+00
    47 0.40110585338298E+00
    48 0.35516610258376E+00
    49 -.12479534009491E+00
    50 0.26484764061681E-02
    51 0.19860452754556E-01
    52 0.47247798070181E-01
    53 0.84763401465629E-01
    54 0.16970142284104E-01
    55 0.22592683091762E-02
    56 -.16236303509861E-02
    57 -.63563795819016E-03
    58 0.11626180705902E-01
    59 0.34623593938524E-02
    60 -.26164069029693E-02
 Sym=     8a   
 Ene= -.13773681536791E+01
 Spin= Alpha
 Occup= 1.000000
     1 -.56288748797207E-02
     2 -.12319856784715E-01
     3 -.12944452862290E-01
     4 -.77830143400830E-01
     5 0.20265954487631E+00
     6 0.80775516214191E-01
     7 0.21185318141263E-01
     8 -.47725533571715E-01
     9 -.16917091942262E-01
    10 -.96066547668071E-02
    11 0.23929721322379E-02
    12 0.72136826345691E-02
    13 0.13837240912295E-01
    14 0.15173432550357E-02
    15 0.11545573738772E-01
    16 -.17767726921752E+00
    17 -.38196831721986E+00
    18 -.34049315611402E+00
    19 0.78452475333293E-01
    20 0.87771557194488E-01
    21 0.81541742599043E-02
    22 -.86138183766942E-01
    23 0.24224507820865E-01
    24 0.28647986911906E-01
    25 -.10347490658666E-01
    26 0.88693257377885E-02
    27 0.14781649208770E-02
    28 -.23607919359828E-02
    29 0.22146332042604E-02
    30 0.34262015928426E-02
    31 -.30142493205361E-02
    32 -.65536208034504E-02
    33 -.51878869169046E-02
    34 -.77237001660856E-01
    35 0.20470471209283E+00
    36 0.88051761912281E-01
    37 0.18806471483563E-01
    38 -.48150609457635E-01
    39 -.22065985650141E-01
    40 -.57886051031346E-02
    41 0.15517894629889E-01
    42 -.97292895267548E-02
    43 0.52328924034355E-02
    44 0.84242170920473E-02
    45 -.91612115787094E-02
    46 0.18565494963769E+00
    47 0.39919063346272E+00
    48 0.35718471958794E+00
    49 -.10598847961034E+00
    50 -.20356986504705E-02
    51 0.27116885995266E-01
    52 0.42189830236459E-01
    53 0.86985197772901E-01
    54 0.16143317458201E-01
    55 0.23260722709620E-02
    56 -.10498141581621E-03
    57 -.22210908551458E-02
    58 0.10554516604446E-01
    59 0.22204977862254E-02
    60 -.23501745421353E-02
 Sym=     7a   
 Ene= -.13528434277257E+01
 Spin= Beta
 Occup= 1.000000
     1 -.14713073417728E+00
     2 -.32622826947560E+00
     3 -.25326994302863E+00
     4 0.84495641528563E-01
     5 0.77859307443181E-01
     6 -.81672769408763E-01
     7 0.17099032451347E-01
     8 -.17862352127543E-01
     9 0.54544148029914E-01
    10 0.79297729518534E-02
    11 0.38238294824799E-03
    12 -.83121559001014E-02
    13 0.57397851131914E-02
    14 -.29642771757087E-02
    15 0.33258040536476E-02
    16 0.12423373210774E+00
    17 0.26976098237761E+00
    18 0.22292699341955E+00
    19 0.80936448777127E-01
    20 0.14820588687292E+00
    21 0.30931978365589E-01
    22 0.21064831465177E-01
    23 -.62030276801417E-01
    24 -.25055960336864E-01
    25 -.12642130427018E-01
    26 0.11971591911218E-01
    27 0.67053851580056E-03
    28 -.77926488000724E-02
    29 0.17123404469149E-04
    30 0.67835397192555E-02
    31 -.13859037167120E+00
    32 -.30842631011860E+00
    33 -.23738066403022E+00
    34 0.13313960072427E+00
    35 0.33299176414610E-01
    36 0.66510009085149E-01
    37 -.15881659262077E-01
    38 0.14449668358955E-01
    39 -.53483090594070E-01
    40 0.75088801028610E-02
    41 0.13604146866391E-02
    42 -.88692947895001E-02
    43 0.59789310003628E-02
    44 -.45711693732555E-02
    45 0.18376753094124E-02
    46 0.13687166129651E+00
    47 0.29709042769658E+00
    48 0.24964879190637E+00
    49 0.15194079172776E+00
    50 -.43500438478953E-01
    51 -.43696435448188E-01
    52 -.25237962339302E-01
    53 0.65948423786106E-01
    54 0.24908281102347E-01
    55 -.67883320153092E-02
    56 0.61056090889598E-02
    57 0.68272292634942E-03
    58 -.13827975058915E-01
    59 -.28783778443108E-02
    60 0.54059710717028E-02
 Sym=     8a   
 Ene= -.13213544770881E+01
 Spin= Beta
 Occup= 1.000000
     1 -.18315258073802E+00
     2 -.39462811256737E+00
     3 -.37623120103886E+00
     4 -.79353027507481E-01
     5 -.27775116991738E-01
     6 0.12712786879090E-01
     7 0.77961187014420E-01
     8 -.34177991462724E-02
     9 0.79952609482720E-01
    10 -.11102256331475E-01
    11 0.66096718221743E-03
    12 0.10441289149257E-01
    13 -.23619172105551E-02
    14 -.47480199258822E-02
    15 -.58705518424601E-02
    16 -.14419686781976E-01
    17 -.32068104665325E-01
    18 -.28227188597195E-01
    19 0.49863733573192E-01
    20 -.66092951197862E-01
    21 0.21503688769213E+00
    22 -.18562882629248E-01
    23 0.20033258126743E-01
    24 -.54443430673213E-01
    25 -.72237049698788E-02
    26 -.44021136443736E-02
    27 0.11625818614252E-01
    28 0.71643763949139E-02