[Molden Format]
[Title]
 Molden file created by orca_2mkl for BaseName=N4

[Atoms] AU
N    1   7          0.9826575896         1.0015548510         0.9637603283 
N    2   7         -0.9826575896        -0.9826575896         0.9826575896 
N    3   7         -0.9826575896         0.9826575896        -0.9826575896 
N    4   7          0.9826575896        -0.9826575896        -0.9826575896 
[GTO]
  1 0
s   5 1.0 
     1712.8415853000        -1.0337585405
      257.6481267700        -1.8620740805
       58.4582458530        -2.7290401880
       16.1983679050        -2.6956734544
        5.0052600809        -1.0640914367
s   1 1.0 
        0.5873185657         0.4781513534
s   1 1.0 
        0.1876459225         0.2031956662
p   3 1.0 
       13.5714702330        -2.1850243557
        2.9257372874        -1.7466999024
        0.7992775075        -0.8114650516
p   1 1.0 
        0.2195434803         0.2142105067
d   1 1.0 
        1.0000000000         2.8508218814

  2 0
s   5 1.0 
     1712.8415853000        -1.0337585405
      257.6481267700        -1.8620740805
       58.4582458530        -2.7290401880
       16.1983679050        -2.6956734544
        5.0052600809        -1.0640914367
s   1 1.0 
        0.5873185657         0.4781513534
s   1 1.0 
        0.1876459225         0.2031956662
p   3 1.0 
       13.5714702330        -2.1850243557
        2.9257372874        -1.7466999024
        0.7992775075        -0.8114650516
p   1 1.0 
        0.2195434803         0.2142105067
d   1 1.0 
        1.0000000000         2.8508218814

  3 0
s   5 1.0 
     1712.8415853000        -1.0337585405
      257.6481267700        -1.8620740805
       58.4582458530        -2.7290401880
       16.1983679050        -2.6956734544
        5.0052600809        -1.0640914367
s   1 1.0 
        0.5873185657         0.4781513534
s   1 1.0 
        0.1876459225         0.2031956662
p   3 1.0 
       13.5714702330        -2.1850243557
        2.9257372874        -1.7466999024
        0.7992775075        -0.8114650516
p   1 1.0 
        0.2195434803         0.2142105067
d   1 1.0 
        1.0000000000         2.8508218814

  4 0
s   5 1.0 
     1712.8415853000        -1.0337585405
      257.6481267700        -1.8620740805
       58.4582458530        -2.7290401880
       16.1983679050        -2.6956734544
        5.0052600809        -1.0640914367
s   1 1.0 
        0.5873185657         0.4781513534
s   1 1.0 
        0.1876459225         0.2031956662
p   3 1.0 
       13.5714702330        -2.1850243557
        2.9257372874        -1.7466999024
        0.7992775075        -0.8114650516
p   1 1.0 
        0.2195434803         0.2142105067
d   1 1.0 
        1.0000000000         2.8508218814

[5D]
[7F]
[9G]
[MO]
 Sym=     1a
 Ene= -1.61271559679007E+01
 Spin= Alpha
 Occup= 1.000000
  1      -0.380703715871
  2       0.013102158419
  3      -0.004365819472
  4       0.000928739847
  5       0.000960337557
  6       0.001049003399
  7       0.000491619936
  8       0.000513450230
  9       0.002588254978
 10       0.000423360305
 11      -0.000120344188
 12      -0.000097242452
 13       0.000041838452
 14      -0.000649592016
 15      -0.914217907994
 16       0.030821985880
 17      -0.018024102617
 18      -0.002196927217
 19      -0.002261022886
 20       0.002288552333
 21      -0.003626134408
 22      -0.003639325210
 23       0.004522050398
 24       0.000253149898
 25       0.000104681145
 26       0.000035075651
 27       0.000067227746
 28      -0.000193845141
 29      -0.026719422566
 30       0.001341238764
 31       0.004804939010
 32      -0.000183403030
 33       0.000115843784
 34      -0.000056894538
 35      -0.000499459818
 36      -0.000760380091
 37       0.001617976850
 38      -0.000261858104
 39      -0.000403116590
 40       0.000741765358
 41       0.000202226629
 42       0.000150748463
 43      -0.027599281388
 44       0.001354661110
 45       0.004867471550
 46       0.000115494218
 47      -0.000193247162
 48      -0.000062384443
 49      -0.000799271881
 50      -0.000473319608
 51       0.001644023618
 52      -0.000257908977
 53       0.000744266215
 54      -0.000390952679
 55      -0.000197102370
 56       0.000152912859
 Sym=     1a
 Ene= -1.61266448974125E+01
 Spin= Alpha
 Occup= 1.000000
  1       0.914454459142
  2      -0.030603611225
  3       0.021375045624
  4      -0.002194695823
  5      -0.002270003152
  6      -0.002184574550
  7      -0.004716682194
  8      -0.004776913129
  9      -0.003787260228
 10       0.000071100911
 11      -0.000004523974
 12      -0.000057372833
 13      -0.000068890133
 14      -0.000375767724
 15      -0.381414026984
 16       0.012507148522
 17      -0.012139898835
 18      -0.000902696423
 19      -0.000930352689
 20       0.000814661676
 21      -0.003014439944
 22      -0.003041352164
 23       0.000928719879
 24      -0.000342269819
 25      -0.000093656278
 26      -0.000120790952
 27       0.000015422457
 28       0.000720998394
 29       0.012596597385
 30      -0.000609306922
 31      -0.001984187208
 32      -0.000038154439
 33      -0.000161975792
 34       0.000016283954
 35      -0.001619706759
 36      -0.001531802315
 37      -0.000653519251
 38       0.000110318443
 39       0.000682573429
 40       0.000200714833
 41       0.000506774858
 42      -0.000058776110
 43       0.011645762731
 44      -0.000570291840
 45      -0.001993296611
 46      -0.000154664968
 47      -0.000028358512
 48       0.000027712195
 49      -0.001496508988
 50      -0.001642912346
 51      -0.000654803858
 52       0.000094968740
 53       0.000192719749
 54       0.000660341368
 55      -0.000502296256
 56      -0.000062625500
 Sym=     1a
 Ene= -1.61182300201820E+01
 Spin= Alpha
 Occup= 1.000000
  1       0.028413075170
  2      -0.000529982829
  3       0.005878817839
  4       0.000043853430
  5      -0.000019326662
  6      -0.000087131260
  7       0.000222215335
  8      -0.000906312555
  9      -0.001962094533
 10      -0.000282163882
 11      -0.000417796893
 12      -0.000734770693
 13       0.000186245757
 14      -0.000121124815
 15       0.027202779269
 16      -0.000500973204
 17       0.005919849970
 18       0.000015440557
 19      -0.000052397411
 20      -0.000077399343
 21       0.000929720651
 22      -0.000220231021
 23      -0.001991210441
 24      -0.000295991193
 25       0.000725350995
 26       0.000411696721
 27      -0.000183097534
 28      -0.000115972439
 29      -0.415695888918
 30       0.014166198934
 31      -0.005657969554
 32      -0.001031678784
 33       0.001019997209
 34      -0.001089819506
 35      -0.000729888149
 36       0.000699215281
 37      -0.002899319234
 38       0.000454180581
 39      -0.000066279619
 40       0.000038382975
 41       0.000026273383
 42       0.000636567657
 43      -0.898854680594
 44       0.030102258890
 45      -0.017937170326
 46       0.002220461233
 47      -0.002237718922
 48      -0.002118168870
 49       0.003562818211
 50      -0.003559650228
 51      -0.004555436163
 52       0.000291935854
 53       0.000029875645
 54       0.000051347462
 55       0.000040770881
 56       0.000201780499
 Sym=     1a
 Ene= -1.61177766620864E+01
 Spin= Alpha
 Occup= 1.000000
  1       0.010841508422
  2      -0.000201648787
  3       0.002219917478
  4      -0.000101337688
  5       0.000101465645
  6      -0.000043733902
  7      -0.001700384824
  8       0.001433205590
  9      -0.000740896451
 10      -0.000112783049
 11      -0.000661159171
 12       0.000216838043
 13      -0.000516190023
 14      -0.000052823040
 15       0.009100701840
 16      -0.000153931300
 17       0.002137371008
 18      -0.000102043374
 19       0.000086828203
 20      -0.000027156823
 21      -0.001435292029
 22       0.001682900573
 23      -0.000721298382
 24      -0.000107982347
 25      -0.000224349712
 26       0.000643388667
 27       0.000501624861
 28      -0.000039607118
 29      -0.899178955350
 30       0.029878964774
 31      -0.021268027941
 32      -0.002247074441
 33       0.002226771577
 34      -0.002038162706
 35      -0.004733184777
 36       0.004677200646
 37      -0.003703109503
 38      -0.000080928550
 39       0.000062742024
 40      -0.000119800794
 41       0.000050949477
 42      -0.000429589271
 43       0.416378626350
 44      -0.013599558373
 45       0.012567043497
 46      -0.001037432297
 47       0.001044990898
 48       0.000833981128
 49      -0.003143627394
 50       0.003135918751
 51       0.000942515750
 52       0.000355366770
 53       0.000082367773
 54      -0.000115239397
 55      -0.000015909109
 56       0.000739750598
 Sym=     1a
 Ene= -2.05005773164182E+00
 Spin= Alpha
 Occup= 1.000000
  1       0.132419474089
  2       0.273120167652
  3       0.065267549586
  4       0.080831030967
  5       0.082391825998
  6       0.079500256340
  7      -0.022766290633
  8      -0.024019063705
  9      -0.022116731340
 10       0.000685307500
 11       0.011106278878
 12       0.012896369516
 13       0.000601351172
 14       0.015133132950
 15       0.131756848220
 16       0.271948813298
 17       0.064463826906
 18      -0.079886373097
 19      -0.081780941404
 20       0.079860133662
 21       0.022466445572
 22       0.023482764586
 23      -0.022173707926
 24       0.001043816381
 25      -0.011166433091
 26      -0.012898059744
 27       0.000560353748
 28       0.014950734242
 29       0.129958781970
 30       0.266504917047
 31       0.061202801830
 32      -0.080890415978
 33       0.080781285793
 34      -0.078224978855
 35       0.022326009994
 36      -0.023010824623
 37       0.020663673224
 38       0.000847093262
 39       0.011903800080
 40      -0.013432942156
 41       0.000560692528
 42      -0.014210234802
 43       0.129205303680
 44       0.265129327221
 45       0.060208733186
 46       0.079827256387
 47      -0.081635636178
 48      -0.077039059714
 49      -0.021922443437
 50       0.022828378042
 51       0.020257050663
 52       0.000733842452
 53      -0.011701338604
 54       0.013432002675
 55       0.000258570540
 56      -0.014274581126
 Sym=     1a
 Ene= -1.42315968200627E+00
 Spin= Alpha
 Occup= 1.000000
  1      -0.103697589992
  2      -0.224715666492
  3      -0.205223658381
  4      -0.093500780792
  5      -0.073075803573
  6       0.150624134861
  7       0.052278957846
  8       0.048472808082
  9       0.000497111403
 10       0.022136105061
 11       0.008526695841
 12       0.010059808010
 13      -0.002429468664
 14      -0.019424197013
 15      -0.156796576431
 16      -0.341032978884
 17      -0.301442108272
 18       0.065843929445
 19       0.084408414329
 20       0.118221300063
 21      -0.060404043914
 22      -0.065210864661
 23       0.022027193943
 24       0.017358451175
 25      -0.009021990565
 26      -0.005595156193
 27       0.000614344029
 28      -0.017584088885
 29       0.119036795597
 30       0.257901478235
 31       0.230916155018
 32      -0.102092496213
 33       0.062006307565
 34       0.137471670222
 35       0.057359190983
 36      -0.048772221594
 37       0.008225908216
 38      -0.020093673014
 39      -0.006040926936
 40       0.009103794931
 41       0.004306587581
 42      -0.018245364434
 43       0.143079934642
 44       0.310047968002
 45       0.275316012041
 46       0.060540893376
 47      -0.095326455126
 48       0.123228527397
 49      -0.055538588320
 50       0.063150560207
 51       0.017394493203
 52      -0.017739425312
 53       0.009482958229
 54      -0.003932521748
 55      -0.002793955156
 56      -0.017201298367
 Sym=     1a
 Ene= -1.41530099479136E+00
 Spin= Alpha
 Occup= 1.000000
  1       0.200973778247
  2       0.439546695487
  3       0.376125312281
  4      -0.067961114462
  5       0.023806542194
  6       0.087604167352
  7      -0.041600169843
  8      -0.062306048263
  9      -0.074831834911
 10       0.013292233913
 11      -0.001880295551
 12       0.010405088701
 13      -0.006075761179
 14      -0.004136453856
 15      -0.161571116135
 16      -0.353945857217
 17      -0.297386584319
 18      -0.091904945524
 19      -0.000018833450
 20      -0.128257109457
 21      -0.024111338016
 22      -0.044424843694
 23       0.071783086440
 24      -0.019607814471
 25       0.000596691176
 26       0.012628198313
 27       0.006348318353
 28       0.009656442982
 29      -0.074436721859
 30      -0.160885461935
 31      -0.147359269306
 32      -0.131335751713
 33      -0.134203138239
 34       0.014302273647
 35       0.003189785575
 36       0.051088388993
 37      -0.025673875197
 38      -0.002246688550
 39       0.014184150974
 40       0.016427692978
 41       0.024467438581
 42       0.000141633890
 43       0.034289486365
 44       0.073922517240
 45       0.067741124376
 46      -0.154795824338
 47      -0.109985082343
 48      -0.053369486840
 49       0.020699125468
 50       0.033735805286
 51       0.021085285989
 52       0.007610051441
 53       0.011745481899
 54       0.018164059250
 55      -0.024719019101
 56       0.005421661295
 Sym=     1a
 Ene= -1.39867300046176E+00
 Spin= Alpha
 Occup= 1.000000
  1      -0.056145910664
  2      -0.123966674345
  3      -0.098645123815
  4      -0.130213908206
  5       0.149752395171
  6      -0.036408127909
  7       0.041814603063
  8      -0.018595183960
  9       0.021375289798
 10      -0.005812670464
 11      -0.017024106672
 12       0.012978242204
 13      -0.026210173698
 14       0.001784777810
 15       0.061962263064
 16       0.136583066530
 17       0.110897661797
 18      -0.131882978192
 19       0.145625227333
 20       0.028602950210
 21       0.044177967693
 22      -0.015857720809
 23      -0.021900003542
 24       0.004952948920
 25      -0.016487501985
 26       0.013514534417
 27       0.025930793661
 28      -0.001071338554
 29      -0.183930474260
 30      -0.400832756660
 31      -0.348129294097
 32       0.011108545094
 33       0.071530662748
 34       0.099599275431
 35      -0.055144281942
 36       0.037307358165
 37      -0.070991917580
 38      -0.016124421929
 39      -0.009947859016
 40       0.002861262152
 41      -0.009136115975
 42      -0.007312359101
 43       0.179319537666
 44       0.390806489161
 45       0.338109473074
 46       0.006758051367
 47       0.072158203637
 48      -0.104683956480
 49      -0.052470891296
 50       0.036215245795
 51       0.070211358071
 52       0.016927465609
 53      -0.010154986595
 54       0.003533512224
 55       0.008872028640
 56       0.007679924215
 Sym=     1a
 Ene= -1.02730072019211E+00
 Spin= Alpha
 Occup= 1.000000
  1      -0.071341679812
  2      -0.150470882133
  3      -0.174483610520
  4       0.178919842547
  5       0.163813383692
  6       0.192777209427
  7      -0.073665865502
  8      -0.064045872690
  9      -0.082157567971
 10      -0.002161618241
 11       0.026351554478
 12       0.024758111583
 13      -0.001227784631
 14       0.021482468463
 15      -0.071691918547
 16      -0.151389748660
 17      -0.175563859605
 18      -0.176721176140
 19      -0.159974882514
 20       0.196246598587
 21       0.072427487194
 22       0.061790458338
 23      -0.083754513550
 24      -0.001585307058
 25      -0.026714308675
 26      -0.024761911743
 27      -0.000900830638
 28       0.021022739767
 29      -0.065323797911
 30      -0.136397122605
 31      -0.160253511107
 32      -0.158116884730
 33       0.145466243814
 34      -0.202033881698
 35       0.063664907022
 36      -0.056540960980
 37       0.088467813670
 38      -0.000019467994
 39       0.026052274540
 40      -0.023875789280
 41      -0.000352783660
 42      -0.020367512807
 43      -0.065089875700
 44      -0.136030636596
 45      -0.159600971003
 46       0.156323070641
 47      -0.145218510086
 48      -0.201171528052
 49      -0.062972927736
 50       0.056115885575
 51       0.088304620456
 52      -0.000185611207
 53      -0.025929570827
 54       0.023823769411
 55      -0.000456310015
 56      -0.020306381843
 Sym=     1a
 Ene= -9.36771787017430E-01
 Spin= Alpha
 Occup= 1.000000
  1      -0.048689582754
  2      -0.118680713878
  3      -0.072406153085
  4       0.300068159073
  5       0.161033229356
  6      -0.255386310297
  7      -0.170339790477
  8      -0.092432631928
  9       0.133438579429
 10      -0.022602057298
 11      -0.004057591795
 12      -0.018337269661
 13       0.002980270923
 14       0.032507575274
 15      -0.043776401850
 16      -0.106255028539
 17      -0.067028870255
 18      -0.284077915163
 19      -0.172363706649
 20      -0.270056387077
 21       0.160714108039
 22       0.096106372873
 23       0.141743659532
 24      -0.024003268118
 25       0.004834435727
 26       0.017811929614
 27       0.000718826663
 28       0.032711263380
 29       0.034779193678
 30       0.085759121470
 31       0.048564314801
 32      -0.081136587781
 33      -0.033216068855
 34       0.182990265746
 35       0.045434463541
 36       0.018644072393
 37      -0.117003784918
 38       0.004914215346
 39      -0.005779136734
 40       0.018056283236
 41       0.003843110117
 42      -0.019853938537
 43       0.042707853482
 44       0.105108986893
 45       0.060989416311
 46       0.067086458477
 47       0.032519193727
 48       0.205204354895
 49      -0.037282927719
 50      -0.020102126177
 51      -0.129267252104
 52       0.003916763987
 53       0.007242886652
 54      -0.018163008731
 55       0.002540312970
 56      -0.019789106254
 Sym=     1a
 Ene= -9.24911605520443E-01
 Spin= Alpha
 Occup= 1.000000
  1      -0.094993725847
  2      -0.231271102512
  3      -0.143556824657
  4       0.007103567976
  5       0.151999958795
  6       0.286129906350
  7      -0.026046239376
  8      -0.093487569578
  9      -0.161642343495
 10       0.017146898921
 11       0.007168524726
 12       0.012864782201
 13      -0.014421826610
 14      -0.000612257129
 15       0.105270262774
 16       0.256766250415
 17       0.157863298601
 18       0.015133747182
 19       0.178515579370
 20      -0.293012710820
 21      -0.030935568655
 22      -0.108452808481
 23       0.169384496228
 24      -0.013838594700
 25       0.006803470387
 26       0.014557853509
 27       0.014883397815
 28       0.000641990384
 29       0.042749205182
 30       0.104386729141
 31       0.063069072198
 32      -0.149091853262
 33      -0.189770387067
 34       0.146888483058
 35       0.062824027620
 36       0.100169412388
 37      -0.083644910855
 38      -0.008823186800
 39       0.003059472281
 40       0.012677699788
 41       0.029792690621
 42      -0.001909580822
 43      -0.054600735230
 44      -0.132647509242
 45      -0.082192591343
 46      -0.100538451661
 47      -0.218453395265
 48      -0.123684779549
 49       0.035537483380
 50       0.116065403717
 51       0.073398999565
 52       0.004010167116
 53       0.002627086621
 54       0.010782167672
 55      -0.029360613254
 56      -0.001812156017
 Sym=     1a
 Ene= -9.23505220689480E-01
 Spin= Alpha
 Occup= 1.000000
  1       0.043127233434
  2       0.105197969707
  3       0.064683064173
  4      -0.210436692753
  5       0.134531196837
  6      -0.147491663483
  7       0.111421895726
  8      -0.054891344501
  9       0.083665712752
 10      -0.008405828834
 11      -0.013519605598
 12       0.002229828799
 13      -0.028508911970
 14       0.001125599793
 15      -0.045817812429
 16      -0.112017623366
 17      -0.068126613507
 18      -0.224540185060
 19       0.112887581570
 20       0.120124897132
 21       0.120061617197
 22      -0.042513687141
 23      -0.069095287296
 24       0.006662674243
 25      -0.012011393163
 26       0.003408531403
 27       0.028169197795
 28       0.002089670503
 29       0.101547604251
 30       0.246683489087
 31       0.158414696351
 32       0.169098422907
 33      -0.003087945316
 34       0.292073760562
 35      -0.102257747611
 36       0.021984604338
 37      -0.167527690368
 38      -0.014246097292
 39      -0.014511645068
 40       0.005428254323
 41      -0.013414306768
 42      -0.001006700780
 43      -0.100376994424
 44      -0.243933256537
 45      -0.156779840825
 46       0.173171947683
 47      -0.019858369985
 48      -0.269113555564
 49      -0.104896127299
 50       0.031169595334
 51       0.153822528559
 52       0.013619121893
 53      -0.012784496138
 54       0.005015809808
 55       0.013122586241
 56      -0.001933965681
 Sym=     1a
 Ene= -9.14708758175609E-01
 Spin= Alpha
 Occup= 1.000000
  1       0.071431810392
  2       0.176114418328
  3       0.098978589730
  4      -0.060780329963
  5      -0.159602569253
  6      -0.087306540521
  7       0.039126284292
  8       0.094063388633
  9       0.074338811603
 10       0.017186350906
 11      -0.002435946474
 12      -0.012107928151
 13       0.004402757075
 14       0.005149743311
 15       0.057462178120
 16       0.141930283758
 17       0.079318569815
 18       0.062360647219
 19       0.130871350053
 20      -0.048268029701
 21      -0.035824369376
 22      -0.076147259305
 23       0.051387495241
 24       0.019168628850
 25       0.001782545273
 26       0.010318795142
 27       0.001538052643
 28       0.004984908447
 29      -0.079621267442
 30      -0.191157441364
 31      -0.122967654481
 32      -0.299770212713
 33       0.223199621728
 34       0.155435704398
 35       0.175018552064
 36      -0.127315887314
 37      -0.069069286949
 38      -0.028089313461
 39      -0.000285048863
 40       0.010025464981
 41      -0.000367142867
 42      -0.027157939113
 43      -0.070269193162
 44      -0.168133313167
 45      -0.110451145445
 46       0.316951511022
 47      -0.190570880116
 48       0.184304612490
 49      -0.180503312300
 50       0.108961854196
 51      -0.086144303701
 52      -0.029255152231
 53       0.000156167408
 54      -0.012202576525
 55       0.003984439716
 56      -0.027220722136
 Sym=     1a
 Ene= -8.95588503231928E-01
 Spin= Alpha
 Occup= 1.000000
  1       0.003273534707
  2       0.007251687182
  3       0.007153696739
  4       0.193950947690
  5      -0.275241639520
  6       0.068268363101
  7      -0.112792866152
  8       0.160256474563
  9      -0.041459068321
 10       0.002267200271
 11       0.027954226440
 12      -0.021181070248
 13       0.011283018374
 14      -0.008814701822
 15      -0.000024605949
 16      -0.001352997067
 17       0.004941030018
 18      -0.202720055668
 19       0.280423948911
 20       0.077498634780
 21       0.118872790607
 22      -0.161467820118
 23      -0.047887878137
 24       0.002829414416
 25      -0.028479973966
 26       0.021133234704
 27       0.012249952288
 28      -0.008993886472
 29       0.009174446797
 30       0.021440632341
 31       0.014832287324
 32      -0.160522814576
 33      -0.283931898876
 34      -0.068967264061
 35       0.094308722994
 36       0.166334402178
 37       0.038931062925
 38       0.004200803590
 39       0.027227515907
 40       0.020692117576
 41       0.011202805419
 42       0.010717892391
 43       0.006060919887
 44       0.013307585563
 45       0.012649766122
 46       0.169050455312
 47       0.288209797895
 48      -0.081945233065
 49      -0.100097661151
 50      -0.167065665341
 51       0.047569028182
 52       0.005356917709
 53      -0.027892688668
 54      -0.020445103571
 55       0.012652909990
 56       0.010326355901
 Sym=     1a
 Ene= -1.85366261922714E-01
 Spin= Alpha
 Occup= 0.000000
  1       0.006720413735
  2       0.017144882264
  3       0.049228174310
  4       0.286363622637
  5       0.108601088346
  6      -0.332491191893
  7      -0.336479999346
  8      -0.131559436258
  9       0.378076374800
 10      -0.000179404179
 11       0.003017766731
 12       0.007168272646
 13      -0.000128908263
 14      -0.008407629698
 15      -0.006053803593
 16      -0.015965992451
 17      -0.045225135095
 18       0.283054682710
 19       0.114542027119
 20       0.330005558067
 21      -0.332301259252
 22      -0.137958762564
 23      -0.375132111946
 24      -0.000210183250
 25       0.003033003658
 26       0.007222038513
 27       0.000062801062
 28       0.008753838014
 29      -0.002600780492
 30      -0.005554039064
 31      -0.013887683604
 32      -0.249947839657
 33      -0.085531275633
 34       0.174656669761
 35       0.280518535738
 36       0.093931996260
 37      -0.201044643717
 38      -0.000224699464
 39      -0.001544843354
 40      -0.003988973384
 41       0.004047527393
 42       0.003378089811
 43       0.002049199223
 44       0.003899304258
 45       0.011621798428
 46      -0.254131072084
 47      -0.090384706818
 48      -0.169088051949
 49       0.284940306476
 50       0.099515504320
 51       0.193649344137
 52       0.000413557385
 53      -0.001523171351
 54      -0.004331882832
 55      -0.004093609188
 56      -0.003455719286
 Sym=     1a
 Ene= -1.62796071289040E-01
 Spin= Alpha
 Occup= 0.000000
  1       0.005815088563
  2       0.015406457839
  3       0.046117981962
  4      -0.051277172372
  5       0.256186189049
  6      -0.149408252153
  7       0.050846282232
  8      -0.308888503139
  9       0.172706183865
 10      -0.000048556525
 11       0.006527964980
 12      -0.000338731544
 13      -0.002409656686
 14      -0.004824095309
 15      -0.004075681038
 16      -0.011139391649
 17      -0.036177181840
 18      -0.091090244227
 19       0.294665455007
 20       0.152962757871
 21       0.097521319728
 22      -0.353710636188
 23      -0.179842991562
 24      -0.000368321505
 25       0.007718299665
 26      -0.001618961936
 27       0.002914673701
 28       0.005277816102
 29      -0.000731369139
 30      -0.004651390991
 31      -0.016000295163
 32       0.125942290093
 33      -0.245850604997
 34      -0.332308138820
 35      -0.158373285550
 36       0.290130955909
 37       0.389997118857
 38       0.000254143544
 39      -0.004330966900
 40       0.003299388280
 41       0.002831949657
 42      -0.008205085085
 43      -0.000987968434
 44       0.000349143629
 45       0.006404562969
 46       0.085364924671
 47      -0.280559863569
 48       0.339544392152
 49      -0.110025802787
 50       0.331038851995
 51      -0.401319553967
 52       0.000175404464
 53      -0.005504143954
 54       0.002144665518
 55      -0.003405317756
 56       0.008758762247
 Sym=     1a
 Ene= -1.48900390222591E-01
 Spin= Alpha
 Occup= 0.000000
  1      -0.004318005606
  2      -0.012183802271
  3      -0.034416412510
  4       0.258599772940
  5      -0.297942162114
  6      -0.001745014245
  7      -0.306523899262
  8       0.361763262816
  9       0.010250570313
 10       0.001488993028
 11      -0.008443799999
 12       0.008057411775
 13       0.002192254703
 14      -0.000682494878
 15      -0.001462130020
 16      -0.004611054203
 17      -0.014718640818
 18      -0.258934266627
 19       0.253393042037
 20      -0.025840271713
 21       0.312956655480
 22      -0.305915387847
 23       0.039035238981
 24       0.001905422057
 25       0.007491053390
 26      -0.008653783632
 27       0.001709800327
 28      -0.001573900691
 29       0.003902507095
 30       0.009980904486
 31       0.033680854893
 32       0.254962005654
 33       0.302793894434
 34       0.006314153514
 35      -0.305296770895
 36      -0.369431763094
 37       0.000833206420
 38      -0.001465656905
 39       0.007466710267
 40       0.007453743346
 41      -0.003211030232
 42      -0.000413530796
 43       0.002153059014
 44       0.005070777250
 45       0.020973945218
 46      -0.273943072097
 47      -0.261849475472
 48      -0.033352184464
 49       0.334033552937
 50       0.320133975346
 51       0.048404065035
 52      -0.001589186110
 53      -0.006869230622
 54      -0.008519940641
 55      -0.002368269106
 56      -0.001759275144
 Sym=     1a
 Ene= -5.55165508281765E-02
 Spin= Alpha
 Occup= 0.000000
  1       0.012188654606
  2       0.032720856350
  3       0.081239316171
  4       0.086270711556
  5       0.057523998618
  6      -0.081685433278
  7      -0.263119189786
  8      -0.155859086233
  9       0.308980835637
 10       0.013149812791
 11       0.010752380269
 12       0.019585408949
 13      -0.002678577303
 14      -0.025979319782
 15      -0.151816288837
 16      -0.389703223171
 17      -1.265669996715
 18       0.286732237822
 19       0.231921576088
 20      -0.331748397806
 21      -0.589593986776
 22      -0.442866431899
 23       0.701500603912
 24       0.002453724700
 25      -0.001579878134
 26       0.010534046245
 27       0.001718915917
 28      -0.020684963398
 29       0.046610258975
 30       0.118530856760
 31       0.388884457353
 32       0.028699784239
 33       0.111663525623
 34      -0.171717779266
 35      -0.172039718887
 36      -0.247601510569
 37       0.447821335581
 38      -0.010409514101
 39       0.008223891261
 40       0.021653807173
 41       0.007799088575
 42      -0.023463669619
 43       0.095039830579
 44       0.241532137008
 45       0.800053492401
 46       0.226324442088
 47      -0.059086503819
 48      -0.243660574628
 49      -0.490743371259
 50       0.030585830178
 51       0.565666956342
 52      -0.006943190006
 53       0.017039772554
 54       0.015408592382
 55      -0.006721855800
 56      -0.021476176182
 Sym=     1a
 Ene= -5.17386065450669E-02
 Spin= Alpha
 Occup= 0.000000
  1      -0.159766365219
  2      -0.410410962224
  3      -1.343641316659
  4      -0.296304700953
  5      -0.264642651489
  6      -0.326691320300
  7       0.610599125915
  8       0.545871124788
  9       0.672831086148
 10       0.000368782731
 11      -0.004077036842
 12      -0.010084616425
 13       0.000028253147
 14      -0.016905657643
 15       0.039448937055
 16       0.102586720890
 17       0.312874753121
 18      -0.117575052612
 19      -0.120564326379
 20      -0.019303159186
 21       0.317238581710
 22       0.304638765680
 23       0.185422907297
 24       0.013723666956
 25      -0.014692833275
 26      -0.017105341539
 27      -0.000749232497
 28      -0.023201639112
 29       0.066471002870