[Molden Format]
[Atoms] (AU)
N    1    7         0.982657589101       0.996830535097       0.968484643104
N    2    7        -0.982657589101      -0.987381904433       0.987381904433
N    3    7        -0.982657589101       0.977933273768      -0.977933273768
N    4    7         0.982657589101      -0.987381904433      -0.977933273768
[GTO]
  1 0
 s    8  1.00
    11420.0000000000         0.0005230000
     1712.0000000000         0.0040450000
      389.3000000000         0.0207750000
      110.0000000000         0.0807270000
       35.5700000000         0.2330740000
       12.5400000000         0.4335010000
        4.6440000000         0.3474720000
        0.5118000000        -0.0085080000
 s    8  1.00
    11420.0000000000        -0.0001150000
     1712.0000000000        -0.0008950000
      389.3000000000        -0.0046240000
      110.0000000000        -0.0185280000
       35.5700000000        -0.0573390000
       12.5400000000        -0.1320760000
        4.6440000000        -0.1725100000
        0.5118000000         0.5999440000
 s    1  1.00
        1.2930000000         1.0000000000
 s    1  1.00
        0.1787000000         1.0000000000
 p    3  1.00
       26.6300000000         0.0146700000
        5.9480000000         0.0917640000
        1.7420000000         0.2986830000
 p    1  1.00
        0.5550000000         1.0000000000
 p    1  1.00
        0.1725000000         1.0000000000
 d    1  1.00
        1.6540000000         1.0000000000
 d    1  1.00
        0.4690000000         1.0000000000
 f    1  1.00
        1.0930000000         1.0000000000

  2 0
 s    8  1.00
    11420.0000000000         0.0005230000
     1712.0000000000         0.0040450000
      389.3000000000         0.0207750000
      110.0000000000         0.0807270000
       35.5700000000         0.2330740000
       12.5400000000         0.4335010000
        4.6440000000         0.3474720000
        0.5118000000        -0.0085080000
 s    8  1.00
    11420.0000000000        -0.0001150000
     1712.0000000000        -0.0008950000
      389.3000000000        -0.0046240000
      110.0000000000        -0.0185280000
       35.5700000000        -0.0573390000
       12.5400000000        -0.1320760000
        4.6440000000        -0.1725100000
        0.5118000000         0.5999440000
 s    1  1.00
        1.2930000000         1.0000000000
 s    1  1.00
        0.1787000000         1.0000000000
 p    3  1.00
       26.6300000000         0.0146700000
        5.9480000000         0.0917640000
        1.7420000000         0.2986830000
 p    1  1.00
        0.5550000000         1.0000000000
 p    1  1.00
        0.1725000000         1.0000000000
 d    1  1.00
        1.6540000000         1.0000000000
 d    1  1.00
        0.4690000000         1.0000000000
 f    1  1.00
        1.0930000000         1.0000000000

  3 0
 s    8  1.00
    11420.0000000000         0.0005230000
     1712.0000000000         0.0040450000
      389.3000000000         0.0207750000
      110.0000000000         0.0807270000
       35.5700000000         0.2330740000
       12.5400000000         0.4335010000
        4.6440000000         0.3474720000
        0.5118000000        -0.0085080000
 s    8  1.00
    11420.0000000000        -0.0001150000
     1712.0000000000        -0.0008950000
      389.3000000000        -0.0046240000
      110.0000000000        -0.0185280000
       35.5700000000        -0.0573390000
       12.5400000000        -0.1320760000
        4.6440000000        -0.1725100000
        0.5118000000         0.5999440000
 s    1  1.00
        1.2930000000         1.0000000000
 s    1  1.00
        0.1787000000         1.0000000000
 p    3  1.00
       26.6300000000         0.0146700000
        5.9480000000         0.0917640000
        1.7420000000         0.2986830000
 p    1  1.00
        0.5550000000         1.0000000000
 p    1  1.00
        0.1725000000         1.0000000000
 d    1  1.00
        1.6540000000         1.0000000000
 d    1  1.00
        0.4690000000         1.0000000000
 f    1  1.00
        1.0930000000         1.0000000000

  4 0
 s    8  1.00
    11420.0000000000         0.0005230000
     1712.0000000000         0.0040450000
      389.3000000000         0.0207750000
      110.0000000000         0.0807270000
       35.5700000000         0.2330740000
       12.5400000000         0.4335010000
        4.6440000000         0.3474720000
        0.5118000000        -0.0085080000
 s    8  1.00
    11420.0000000000        -0.0001150000
     1712.0000000000        -0.0008950000
      389.3000000000        -0.0046240000
      110.0000000000        -0.0185280000
       35.5700000000        -0.0573390000
       12.5400000000        -0.1320760000
        4.6440000000        -0.1725100000
        0.5118000000         0.5999440000
 s    1  1.00
        1.2930000000         1.0000000000
 s    1  1.00
        0.1787000000         1.0000000000
 p    3  1.00
       26.6300000000         0.0146700000
        5.9480000000         0.0917640000
        1.7420000000         0.2986830000
 p    1  1.00
        0.5550000000         1.0000000000
 p    1  1.00
        0.1725000000         1.0000000000
 d    1  1.00
        1.6540000000         1.0000000000
 d    1  1.00
        0.4690000000         1.0000000000
 f    1  1.00
        1.0930000000         1.0000000000

[5D]
[9G]

[MO]
 Sym= A
 Ene=       -15.7508760525
 Spin= Alpha
 Occup=  2.0000
  1       0.492464848351
  2       0.000593623650
  3       0.020565255064
  4       0.000780417886
  5      -0.001015785045
  6      -0.001020290321
  7      -0.001010924889
  8       0.000231059718
  9       0.000259671739
 10       0.000209402760
 11      -0.000171916694
 12      -0.000168243927
 13      -0.000174068067
 14       0.000003946573
 15       0.000152773359
 16       0.000146021621
 17       0.000002879515
 18       0.000140435996
 19       0.000007846152
 20      -0.000032230256
 21      -0.000043679185
 22       0.000005999296
 23      -0.000052087098
 24      -0.000015552078
 25       0.000007642665
 26       0.000008403008
 27      -0.000001437196
 28       0.000031556140
 29      -0.000013372681
 30       0.000012007520
 31       0.465779521817
 32       0.000639851074
 33       0.019405787448
 34       0.000834887972
 35       0.000946888248
 36       0.000949273868
 37      -0.000960943132
 38      -0.000173279528
 39      -0.000146290377
 40       0.000155800818
 41       0.000190134184
 42       0.000196770287
 43      -0.000195409616
 44       0.000003887825
 45      -0.000140945990
 46      -0.000146423261
 47      -0.000002895959
 48       0.000138250021
 49      -0.000001221373
 50       0.000020366667
 51       0.000006281854
 52      -0.000008261560
 53      -0.000013370904
 54      -0.000011259710
 55      -0.000010070302
 56      -0.000007221397
 57       0.000003921188
 58       0.000027413103
 59       0.000006328386
 60      -0.000009175980
 61       0.511372092037
 62       0.000560195302
 63       0.021389113127
 64       0.000741754873
 65       0.001067717339
 66      -0.001052241221
 67       0.001064846662
 68      -0.000272731161
 69       0.000297013344
 70      -0.000293212213
 71       0.000159341380
 72      -0.000152114838
 73       0.000154634880
 74       0.000000450480
 75       0.000154770422
 76      -0.000144942044
 77       0.000005671722
 78      -0.000149368617
 79      -0.000003957035
 80      -0.000060436602
 81       0.000071729585
 82       0.000005151930
 83       0.000061346654
 84       0.000017790772
 85      -0.000012558905
 86       0.000013442247
 87       0.000001067238
 88       0.000035111063
 89       0.000013171537
 90       0.000012551795
 91       0.485597644040
 92       0.000606135939
 93       0.020268363743
 94       0.000795375080
 95      -0.001000285258
 96       0.001002812104
 97       0.000997601334
 98       0.000217035925
 99      -0.000189319819
100      -0.000236846672
101      -0.000176745741
102       0.000183506467
103       0.000172125170
104      -0.000004439480
105      -0.000140244221
106       0.000145868756
107      -0.000002990095
108      -0.000150144751
109      -0.000011669579
110       0.000048953629
111      -0.000034318967
112      -0.000008401039
113       0.000024471913
114       0.000013937090
115       0.000014239536
116      -0.000011275249
117      -0.000004107752
118       0.000031017471
119      -0.000007172872
120      -0.000009943890
 Sym= A
 Ene=       -15.7499672399
 Spin= Alpha
 Occup=  2.0000
  1       0.298533007315
  2      -0.000581614262
  3       0.012877534520
  4      -0.000690574783
  5      -0.000666731918
  6      -0.000663397608
  7      -0.000659923364
  8       0.001385536353
  9       0.000075490227
 10       0.001091487079
 11       0.000418591389
 12       0.000049036552
 13       0.000334823063
 14      -0.000037054952
 15      -0.000102783797
 16       0.000127899193
 17      -0.000115585169
 18       0.000077291867
 19      -0.000124098389
 20      -0.000760234501
 21       0.000008385512
 22      -0.000399973839
 23      -0.000161195909
 24      -0.000037144049
 25       0.000145925296
 26      -0.000017848432
 27       0.000201222647
 28       0.000037792877
 29       0.000065723506
 30       0.000048903774
 31       0.146940804601
 32      -0.000261268603
 33       0.006327916550
 34      -0.000306342226
 35       0.000315366354
 36       0.000328377887
 37      -0.000331541450
 38       0.000427610474
 39      -0.000873537246
 40       0.000748327242
 41       0.000116371666
 42      -0.000256106577
 43       0.000223813169
 44      -0.000050442125
 45      -0.000103068737
 46       0.000125386446
 47       0.000111101160
 48       0.000078966562
 49      -0.000185664747
 50      -0.000142706467
 51       0.000634818980
 52       0.000395963268
 53       0.000070891205
 54      -0.000021175938
 55       0.000011701378
 56      -0.000160449174
 57      -0.000203931572
 58       0.000015681400
 59       0.000014375806
 60       0.000096669820
 61      -0.817704959978
 62       0.001684065950
 63      -0.035352688834
 64       0.002019106150
 65      -0.001844836458
 66       0.001822876057
 67      -0.001836830518
 68       0.002562902075
 69      -0.002370148210
 70       0.002268436843
 71       0.000822376173
 72      -0.000769219501
 73       0.000735966235
 74      -0.000021905769
 75      -0.000094153090
 76       0.000121051339
 77       0.000012036471
 78       0.000071675250
 79      -0.000077100847
 80       0.000868802065
 81      -0.000761875186
 82       0.000055001614
 83      -0.000932843593
 84      -0.000094220499
 85       0.000042205168
 86      -0.000021729547
 87       0.000025386954
 88      -0.000087236918
 89      -0.000087893915
 90      -0.000101526270
 91       0.417560575590
 92      -0.000794908443
 93       0.018020797489
 94      -0.000942919212
 95      -0.000936105728
 96       0.000937232472
 97       0.000922551670
 98       0.001625252036
 99      -0.001463926355
100      -0.000444561099
101       0.000499725391
102      -0.000452995665
103      -0.000157081572
104       0.000107647965
105      -0.000101236786
106       0.000129802030
107      -0.000014172137
108       0.000076774856
109       0.000387861510
110       0.000248873557
111      -0.000152232834
112      -0.000047852993
113       0.000858659231
114       0.000036792894
115      -0.000093290394
116       0.000114934340
117      -0.000025335910
118       0.000044878479
119      -0.000140390411
120      -0.000153796475
 Sym= A
 Ene=       -15.7499496054
 Spin= Alpha
 Occup=  2.0000
  1       0.781022453570
  2      -0.001566773193
  3       0.033747242612
  4      -0.001873490051
  5      -0.001746291222
  6      -0.001764316880
  7      -0.001735460553
  8       0.001978427211
  9       0.002529494710
 10       0.002289765259
 11       0.000645407552
 12       0.000805017755
 13       0.000731891133
 14      -0.000004959975
 15       0.000135905288
 16       0.000041917032
 17       0.000046871071
 18       0.000099345173
 19      -0.000002125259
 20      -0.000659039238
 21      -0.000980662628
 22       0.000174268486
 23      -0.000790778900
 24      -0.000094084234
 25       0.000025116758
 26       0.000093295319
 27      -0.000085203258
 28       0.000083666934
 29      -0.000090491811
 30       0.000040824067
 31      -0.230704863336
 32       0.000422134990
 33      -0.009957016758
 34       0.000500372855
 35      -0.000515628175
 36      -0.000522257786
 37       0.000510098312
 38       0.000740951759
 39       0.001283030900
 40       0.000088820051
 41       0.000231884481
 42       0.000385364687
 43       0.000011839569
 44      -0.000109215119
 45       0.000139842424
 46       0.000046375615
 47      -0.000047092148
 48       0.000100170239
 49      -0.000393286696
 50       0.000146788235
 51      -0.000171028758
 52      -0.000168642594
 53       0.000679071608
 54       0.000016428278
 55      -0.000155731435
 56      -0.000086500899
 57       0.000083682616
 58      -0.000025525791
 59      -0.000159820425
 60       0.000110585927
 61      -0.031080657398
 62       0.000066290095
 63      -0.001334903586
 64       0.000079733385
 65      -0.000068435298
 66       0.000061220368
 67      -0.000071167578
 68       0.000343004061
 69       0.000743987865
 70       0.000660949557
 71       0.000097675792
 72       0.000207365718
 73       0.000191027645
 74       0.000084610437
 75       0.000143329760
 76       0.000048832138
 77       0.000093916264
 78       0.000106065361
 79       0.000297052060
 80       0.000518254497
 81       0.000120755243
 82       0.000326708424
 83       0.000316401386
 84      -0.000011714921
 85       0.000172016912
 86      -0.000034644356
 87       0.000164623498
 88      -0.000002937491
 89       0.000128404862
 90       0.000038425247
 91      -0.538107717464
 92       0.001056917200
 93      -0.023239074082
 94       0.001261751908
 95       0.001197016989
 96      -0.001210714920
 97      -0.001201624363
 98      -0.000903022610
 99       0.001979570808
100       0.001748647239
101      -0.000308232022
102       0.000615900619
103       0.000550454716
104       0.000029416703
105       0.000138750005
106       0.000048038222
107      -0.000092554739
108       0.000103095867
109       0.000099204466
110      -0.000297885963
111       0.000934546221
112      -0.000332412495
113      -0.000421791040
114      -0.000068908795
115      -0.000005879197
116       0.000143746721
117      -0.000168430660
118      -0.000058119114
119       0.000061777578
120      -0.000031222673
 Sym= A
 Ene=       -15.7499207018
 Spin= Alpha
 Occup=  2.0000
  1       0.113401066016
  2      -0.000237473885
  3       0.004916727819
  4      -0.000287453386
  5      -0.000265195381
  6      -0.000262798059
  7      -0.000246100264
  8       0.000920173826
  9       0.000554302731
 10      -0.000459092690
 11       0.000281496040
 12       0.000175893309
 13      -0.000119196207
 14       0.000114341947
 15       0.000052255805
 16       0.000117129704
 17      -0.000030600980
 18      -0.000125158077
 19       0.000417736565
 20       0.000010571013
 21       0.000234129009
 22      -0.000109294091
 23      -0.000606887541
 24       0.000003744984
 25      -0.000112884727
 26      -0.000163235555
 27       0.000059228833
 28       0.000006787454
 29      -0.000120311692
 30       0.000148745219
 31      -0.814098915965
 32       0.001574642724
 33      -0.035141655880
 34       0.001876619225
 35      -0.001808125256
 36      -0.001809655889
 37       0.001829528566
 38       0.002418174117
 39       0.002054268924
 40      -0.002488068728
 41       0.000763509386
 42       0.000661715171
 43      -0.000782999848
 44       0.000019635227
 45       0.000051726312
 46       0.000117724303
 47       0.000031388245
 48      -0.000122817313
 49       0.000083176291
 50      -0.000991721619
 51      -0.000770558814
 52       0.000106565191
 53       0.000734062636
 54       0.000096187997
 55       0.000109811420
 56       0.000060001340
 57      -0.000057830560
 58      -0.000089550065
 59      -0.000035804814
 60       0.000064940763
 61       0.152858263843
 62      -0.000339223576
 63       0.006622520225
 64      -0.000412046693
 65       0.000339454203
 66      -0.000344259242
 67       0.000351783904
 68       0.000319221322
 69       0.000655381119
 70      -0.001071904059
 71       0.000068872707
 72       0.000208407163
 73      -0.000330622227
 74      -0.000088525373
 75       0.000050402477
 76       0.000122935655
 77       0.000084289034
 78      -0.000122105300
 79      -0.000316213995
 80      -0.000057972615
 81       0.000640975261
 82       0.000295943919
 83      -0.000192896020
 84       0.000028164100
 85      -0.000055726347
 86       0.000185192193
 87       0.000152291147
 88       0.000016611034
 89      -0.000035017960
 90      -0.000117149103
 91       0.504754944932
 92      -0.001041616012
 93       0.021822267751
 94      -0.001252680508
 95      -0.001134641419
 96       0.001128348535
 97       0.001131736543
 98       0.001797905365
 99      -0.000825169522
100      -0.001838762885
101       0.000570462704
102      -0.000295871813
103      -0.000582717200
104      -0.000052598092
105       0.000059604666
106       0.000112724937
107      -0.000083542216
108      -0.000120641624
109      -0.000181342051
110       0.000930233869
111      -0.000347086562
112      -0.000293790294
113       0.000321032989
114       0.000065015400
115       0.000164740550
116      -0.000034790928
117      -0.000152468204
118       0.000055104963
119       0.000047730437
120      -0.000034295465
 Sym= A
 Ene=        -1.6534729167
 Spin= Alpha
 Occup=  2.0000
  1       0.008528153861
  2      -0.227229969859
  3      -0.053806076722
  4      -0.061128495756
  5       0.037001196696
  6       0.036955470109
  7       0.037028354182
  8       0.051349233103
  9       0.051407426311
 10       0.051274741896
 11       0.008872519040
 12       0.008914667457
 13       0.008828685231
 14       0.000010469751
 15      -0.004639904638
 16      -0.004589961866
 17       0.000003238997
 18      -0.004542516529
 19       0.000113613668
 20      -0.009553851044
 21      -0.009541198177
 22       0.000063431479
 23      -0.009530517214
 24      -0.001768461975
 25       0.001079307739
 26       0.001036336402
 27       0.000017879107
 28       0.001136507026
 29      -0.001337921218
 30       0.001311641035
 31       0.008457425779
 32      -0.225726032940
 33      -0.053483024594
 34      -0.060703126496
 35      -0.036425677520
 36      -0.036673223860
 37       0.037164603654
 38      -0.050597067266
 39      -0.050907582565
 40       0.051508326243
 41      -0.008737443022
 42      -0.008788152717
 43       0.008862953443
 44      -0.000070411380
 45       0.004604633250
 46       0.004624491542
 47       0.000042141744
 48      -0.004489027184
 49      -0.000092514932
 50       0.009500378655
 51       0.009543937906
 52       0.000073355085
 53      -0.009349954392
 54      -0.001720673180
 55      -0.001079885778
 56      -0.001076101068
 57      -0.000006813163
 58       0.001136405117
 59       0.001341099857
 60      -0.001292106915
 61       0.008596529461
 62      -0.228736222164
 63      -0.054126967084
 64      -0.061571255548
 65      -0.037564082262
 66       0.036807189257
 67      -0.037307615394
 68      -0.052097569494
 69       0.051166676180
 70      -0.051776799137
 71      -0.009012614650
 72       0.008882828674
 73      -0.008960229294
 74       0.000002647101
 75      -0.004691189683
 76       0.004552693103
 77      -0.000083791997
 78       0.004571943822
 79       0.000019068630
 80      -0.009736317300
 81       0.009539972983
 82      -0.000120090985
 83       0.009583113492
 84       0.001759873080
 85      -0.001076348944
 86       0.001046940170
 87      -0.000060350390
 88       0.001133033974
 89       0.001337410780
 90       0.001362023122
 91       0.008525936552
 92      -0.227211773974
 93      -0.053801016689
 94      -0.061132789017
 95       0.036990692144
 96      -0.037238112770
 97      -0.036734256499
 98       0.051342097634
 99      -0.051652779451
100      -0.051021658448
101       0.008873629860
102      -0.008924830131
103      -0.008821771199
104       0.000074927101
105       0.004569844716
106      -0.004588032350
107       0.000042798889
108       0.004608974923
109       0.000130131763
110       0.009498912355
111      -0.009540450772
112       0.000074339434
113       0.009585629611
114       0.001761323515
115       0.001042620968
116      -0.001004371023
117       0.000026932751
118       0.001135391719
119      -0.001367600275
120      -0.001343130108
 Sym= A
 Ene=        -1.0447063339
 Spin= Alpha
 Occup=  2.0000
  1       0.001498917910
  2       0.306418423406
  3       0.077826254726
  4       0.214788306605
  5      -0.008997370221
  6       0.057793421155
  7      -0.040884797063
  8      -0.022694854025
  9       0.067909949985
 10      -0.066044546079
 11      -0.012968481227
 12       0.010275652626
 13      -0.024237476787
 14       0.005014456987
 15       0.004953800572
 16      -0.001355469557
 17       0.004498482546
 18      -0.004441245462
 19       0.009988485040
 20       0.014621014992
 21       0.001102974194
 22       0.008950252368
 23      -0.005526669815
 24       0.000061094294
 25      -0.002716222935
 26      -0.001421630943
 27      -0.002153835549
 28       0.000349692590
 29      -0.001721521592
 30      -0.000107886682
 31      -0.001605395516
 32      -0.327989034502
 33      -0.083312350016
 34      -0.230069051964
 35      -0.010712165371
 36       0.054943517337
 37       0.034477334352
 38      -0.025838712041
 39       0.063422714602
 40       0.058335452527
 41      -0.014304172711
 42       0.008623124353
 43       0.022908553931
 44      -0.004384171691
 45       0.004502339849
 46      -0.001712539464
 47      -0.004388050470
 48       0.003959183973
 49      -0.008845310684
 50       0.014120464090
 51       0.000642890135
 52      -0.008782767746
 53       0.004249364920
 54      -0.000082684824
 55      -0.002497142263
 56      -0.001205517366
 57       0.002121363556
 58      -0.000423919980
 59      -0.001518352764
 60      -0.000258083585
 61       0.000896156722
 62       0.180699523186
 63       0.045874028787
 64       0.126713092141
 65       0.050101488440
 66       0.073522155415
 67       0.017517385384
 68       0.074331879726
 69       0.093706723362
 70       0.029996096365
 71       0.023387009175
 72       0.019877690529
 73       0.011940934960
 74       0.002197672819
 75       0.006564217641
 76       0.005188074591
 77       0.008236125262
 78       0.002163276187
 79       0.004377830113
 80       0.016541921197
 81       0.008864169544
 82       0.016506936679
 83       0.002283415121
 84      -0.000095102038
 85       0.002137782368
 86       0.000280707593
 87       0.003988374111
 88       0.000301268295
 89       0.002004383084
 90      -0.001311452953
 91      -0.000817522561
 92      -0.161751556204
 93      -0.041047357531
 94      -0.113682543178
 95       0.046946259809
 96       0.074864811513
 97      -0.023371790254
 98       0.069502349646
 99       0.096153845192
100      -0.037421781908
101       0.021755699567
102       0.020882337768
103      -0.013477240684
104      -0.002903748428
105       0.006739161115
106       0.004750128630
107      -0.008172332487
108      -0.002500347675
109      -0.005823403229
110       0.016798624357
111       0.008167497823
112      -0.016387405885
113      -0.003252438434
114      -0.000010618451
115       0.002343308009
116       0.000005673206
117      -0.003930782340
118      -0.000199693231
119       0.002114718719
120      -0.001224865396
 Sym= A
 Ene=        -1.0413306342
 Spin= Alpha
 Occup=  2.0000
  1       0.000454386992
  2       0.086777954057
  3       0.022041034683
  4       0.061271511114
  5       0.079987902434
  6      -0.038668267150
  7      -0.038289268068
  8       0.105784168797
  9      -0.055591881156
 10      -0.055178624960
 11       0.025389646968
 12      -0.016393422307
 13      -0.016456365557
 14       0.004475650418
 15      -0.003808474181
 16       0.007332744749
 17      -0.007921729907
 18      -0.003854777935
 19       0.009020170954
 20      -0.007122860943
 21       0.017104616427
 22      -0.015944876614
 23      -0.007242645993
 24      -0.000220124796
 25      -0.000564576376
 26      -0.002820078954
 27       0.003828063819
 28       0.000113609738
 29       0.000658856796
 30       0.002565555556
 31      -0.001195813692
 32      -0.233600201886
 33      -0.059374150095
 34      -0.164735525105
 35       0.062714420967
 36      -0.055244853126
 37      -0.000753329880
 38       0.077224384710
 39      -0.083273541390
 40       0.007139795300
 41       0.014560042468
 42      -0.027060582318
 43       0.007429219880
 44      -0.000212043772
 45      -0.005776334329
 46       0.005379338190
 47       0.007825450538
 48       0.000508315628
 49      -0.000451076552
 50      -0.009488573053
 51       0.014780791754
 52       0.015750977833
 53      -0.002021085719
 54      -0.000300795800
 55       0.000891063178
 56      -0.001432361732
 57      -0.003812849801
 58      -0.000297874006
 59       0.001767344493
 60       0.001424248327
 61      -0.001240623866
 62      -0.232520614819
 63      -0.059020808206
 64      -0.164327468647
 65       0.062936247573
 66      -0.001150636815
 67      -0.056053816711
 68       0.077423413982
 69       0.006565620522
 70      -0.084440090107
 71       0.014534742561
 72       0.007151397592
 73      -0.027477608099
 74      -0.006773489044
 75       0.000413667648
 76       0.005360957726
 77       0.004133806362
 78      -0.005816631666
 79      -0.013656577680
 80      -0.002158656347
 81       0.014769661732
 82       0.008305736314
 83      -0.009542998116
 84      -0.000243252051
 85      -0.002025472139
 86       0.003190541644
 87       0.001980174036
 88      -0.000317420758
 89      -0.000418985012
 90      -0.002114011954
 91       0.001982688724
 92       0.379347150822
 93       0.096354355350
 94       0.267801413089
 95       0.045651481484
 96       0.016700336057
 97       0.015721536135
 98       0.048845186392
 99       0.036023050612
100       0.034611767085
101       0.003698169125
102       0.018358479301
103       0.017913211505
104       0.002283043096
105       0.002440988307
106       0.003405039024
107      -0.004167724133
108       0.002408471276
109       0.004559974967
110       0.000294064963
111       0.012443022151
112      -0.008413629430
113       0.000186548431
114      -0.000353720173
115      -0.000547074637
116       0.001706605092
117      -0.002023671501
118       0.000499779132
119       0.000707858345
120      -0.000996307404
 Sym= A
 Ene=        -1.0380041668
 Spin= Alpha
 Occup=  2.0000
  1       0.001699270204
  2       0.305985056577
  3       0.077724864000
  4       0.217528172420
  5      -0.006275963614
  6      -0.039439635792
  7       0.059146154154
  8      -0.019484226569
  9      -0.064642157495
 10       0.069777701791
 11      -0.012459031990
 12      -0.024152921248
 13       0.010966498017
 14      -0.006249547852
 15      -0.004575327242
 16      -0.001529785685
 17      -0.002230752607
 18       0.004622896568
 19      -0.012729808590
 20      -0.005965421016
 21       0.000745231069
 22      -0.004537513256
 23       0.014334634720
 24       0.000899566365
 25       0.002310794747
 26       0.001713195296
 27       0.001036484821
 28       0.000455994765
 29       0.002162625318
 30      -0.001225444207
 31       0.001002920736
 32       0.182981275937
 33       0.046501688787
 34       0.130018071041
 35       0.049177727766
 36       0.016661104951
 37       0.072640574879
 38       0.073439353815
 39       0.029211942693
 40       0.092422224512
 41       0.023548474536
 42       0.012019257588
 43       0.019808539483
 44      -0.008115596677
 45       0.001923034580
 46       0.005031158501
 47       0.002116189108
 48       0.006350669507
 49      -0.016428987729
 50       0.001775935334
 51       0.008536315936
 52       0.004255929125
 53       0.016374424128
 54       0.000964975623
 55      -0.002422835551
 56      -0.003080706948
 57      -0.001069748276
 58       0.000179843496
 59      -0.001588370819
 60       0.002413762797
 61      -0.001824238287
 62      -0.328256041866
 63      -0.083373961010
 64      -0.233196161567
 65      -0.009691763543
 66       0.034062314777
 67       0.056866835762
 68      -0.024862525984
 69       0.057850558622
 70       0.065753447737
 71      -0.014371864788
 72       0.022753141812
 73       0.009374366390
 74       0.006009134795
 75       0.004050771228
 76      -0.001760843631
 77       0.001597474777
 78       0.004486453901
 79       0.012138442261
 80       0.004469027173
 81       0.000509681982
 82       0.003176109486
 83       0.014142512113
 84       0.000917593861
 85       0.002128351399
 86      -0.001650609474
 87       0.000755377169
 88      -0.000441218176
 89       0.001994226874
 90       0.001357206977
 91      -0.000852180198
 92      -0.158072525349
 93      -0.040187872000
 94      -0.112070768011
 95       0.047189313848
 96      -0.022646237725
 97       0.076411318361
 98       0.069744872474
 99      -0.036361739241
100       0.098473202682
101       0.021936462683
102      -0.013225656059
103       0.022051094015
104       0.008468517654
105      -0.002592531582
106       0.004875858133
107      -0.001629211332
108       0.006765687234
109       0.017121677587
110      -0.003581802448
111       0.008529063304
112      -0.003295049122
113       0.016822269505
114       0.000861162751
115      -0.002700067185
116       0.003161863371
117      -0.000795522959
118      -0.000222077297
119      -0.001749684745
120      -0.002402501833
 Sym= A
 Ene=        -0.6857071392
 Spin= Alpha
 Occup=  2.0000
  1       0.002450786148
  2       0.127964931946
  3       0.037899108537
  4       0.164148656644