Process 0 of 1 is on He - thread support 0
initial socket setup ...start
initial socket setup ...done 
now start server 0 ... 
He 127.0.1
Q-Chem Developer Version! Running on 127.0.1.*
                  Welcome to Q-Chem
     A Quantum Leap Into The Future Of Chemistry


 Q-Chem 4.4, Q-Chem, Inc., Pleasanton, CA (2016)

 Y. Shao,  Z. Gan,  E. Epifanovsky,  A. T. B. Gilbert,  M. Wormit,  
 J. Kussmann,  A. W. Lange,  A. Behn,  J. Deng,  X. Feng,  D. Ghosh,  
 M. Goldey,  P. R. Horn,  L. D. Jacobson,  I. Kaliman,  F.Rob,  
 R. Z. Khaliullin,  T. Kus,  A. Landau,  J. Liu,  E. I. Proynov,  Y. M. Rhee,  
 R. M. Richard,  M. A. Rohrdanz,  R. P. Steele,  E. J. Sundstrom,  
 H. L. Woodcock III,  P. M. Zimmerman,  D. Zuev,  B. Albrecht,  E. Alguire,  
 B. Austin,  S. A. Baeppler,  G. J. O. Beran,  Y. A. Bernard,  E. Berquist,  
 K. Brandhorst,  K. B. Bravaya,  S. T. Brown,  D. Casanova,  C.-M. Chang,  
 Y. Chen,  S. H. Chien,  K. D. Closser,  M. P. Coons,  D. L. Crittenden,  
 S. Dasgupta,  M. Diedenhofen,  R. A. DiStasio Jr.,  H. Do,  A. D. Dutoi,  
 R. G. Edgar,  P.-T. Fang,  S. Fatehi,  Q. Feng,  L. Fusti-Molnar,  
 A. Ghysels,  A. Golubeva-Zadorozhnaya,  J. Gomes,  A. Gunina,  
 M. W. D. Hanson-Heine,  P. H. P. Harbach,  A. W. Hauser,  J. E. Herr,  
 E. G. Hohenstein,  Z. C. Holden,  K. Hui,  T.-C. Jagau,  H. Ji,  B. Kaduk,  
 K. Khistyaev,  Jaehoon Kim,  Jihan Kim,  R. A. King,  P. Klunzinger,  
 K. Koh,  D. Kosenkov,  T. Kowalczyk,  C. M. Krauter,  A. Kunitsa,  
 K. U. Lao,  A. Laurent,  K. V. Lawler,  J. Lee,  D. Lefrancois,  S. Lehtola,  
 S. V. Levchenko,  C. Y. Lin,  Y.-S. Lin,  F. Liu,  E. Livshits,  
 R. C. Lochan,  A. Luenser,  P. Manohar,  S. F. Manzer,  S.-P. Mao,  Y. Mao,  
 N. Mardirossian,  A. V. Marenich,  L. A. Martinez-Martinez,  S. A. Maurer,  
 N. J. Mayhall,  J.-M. Mewes,  A. F. Morrison,  K. Nanda,  T. S. Nguyen-Beck,  
 C. M. Oana,  R. Olivares-Amaya,  D. P. O'Neill,  J. A. Parkhill,  
 T. M. Perrine,  R. Peverati,  P. A. Pieniazek,  F. Plasser,  A. Prociuk,  
 D. R. Rehn,  E. Rosta,  N. J. Russ,  N. Sergueev,  S. M. Sharada,  
 S. Sharma,  D. W. Small,  A. Sodt,  T. Stauch,  T. Stein,  D. Stuck,  
 Y.-C. Su,  A. J. W. Thom,  T. Tsuchimochi,  L. Vogt,  O. Vydrov,  T. Wang,  
 M. A. Watson,  J. Wenzel,  A. White,  C. F. Williams,  V. Vanovschi,  
 K. Yao,  S. Yeganeh,  S. R. Yost,  Z.-Q. You,  I. Y. Zhang,  X. Zhang,  
 Y. Zhao,  B. R. Brooks,  G. K. L. Chan,  D. M. Chipman,  C. J. Cramer,  
 W. A. Goddard III,  M. S. Gordon,  W. J. Hehre,  A. Klamt,  
 H. F. Schaefer III,  M. W. Schmidt,  C. D. Sherrill,  D. G. Truhlar,  
 A. Warshel,  X. Xu,  A. Aspuru-Guzik,  R. Baer,  A. T. Bell,  N. A. Besley,  
 J.-D. Chai,  A. Dreuw,  B. D. Dunietz,  T. R. Furlani,  S. R. Gwaltney,  
 C.-P. Hsu,  Y. Jung,  J. Kong,  D. S. Lambrecht,  W. Liang,  C. Ochsenfeld,  
 V. A. Rassolov,  L. V. Slipchenko,  J. E. Subotnik,  T. Van Voorhis,  
 J. M. Herbert,  A. I. Krylov,  P. M. W. Gill,  M. Head-Gordon

 Contributors to earlier versions of Q-Chem not listed above: 
 R. D. Adamson,  J. Baker,  E. F. C. Byrd,  A. K. Chakraborty,  C.-L. Cheng,  
 H. Dachsel,  R. J. Doerksen,  G. Hawkins,  A. Heyden,  S. Hirata,  
 G. Kedziora,  F. J. Keil,  C. Kelley,  P. P. Korambath,  W. Kurlancheek,  
 A. M. Lee,  M. S. Lee,  D. Liotard,  I. Lotan,  P. E. Maslen,  N. Nair,  
 D. Neuhauser,  R. Olson,  B. Peters,  J. Ritchie,  N. E. Schultz,  
 N. Shenvi,  A. C. Simmonett,  K. S. Thanthiriwatte,  Q. Wu,  W. Zhang

 Please cite Q-Chem as follows:
 Y. Shao et al., Mol. Phys. 113, 184-215 (2015)
 DOI: 10.1080/00268976.2014.952696

 Q-Chem 4.4.1 for Intel X86 EM64T Linux

 Parts of Q-Chem use Armadillo 5.200.1 (Boston Tea Smuggler).
 http://arma.sourceforge.net/

 Q-Chem begins on Wed May 17 02:09:56 2017  


Host: 0

     Scratch files written to /home/vladimir/scratch/qchem11483//
 Parallel job on  1  processors

Checking the input file for inconsistencies... 	...done.

--------------------------------------------------------------
User input:
--------------------------------------------------------------
$comment0
$end

$rem
SYMMETRY              false
SYM_IGNORE            true
BASIS                 general
METHOD                HF
SCF_CONVERGENCE       8
MOLDEN_FORMAT         true
PRINT_ORBITALS        1000
$end

$basis
   H 0
   D 3  1.0
     3.13248426462993979154  0.00645458627451019049
     1.51538934021491644704 -0.07085476853267763969
     0.90028999344114131523  0.22897857323582812477
   D 1  1.0
     0.50616845104080927617  1.0
   D 1  1.0
     0.35861735452268052581  1.0
   D 1  1.0
     0.09480033078848178684  1.0
   ****
   C 0
   D 3  1.0
     46.1353741080831021977  0.06678829454430918743
     20.2682182253994397729  0.23122499388298942708
     6.09459166525985575420  5.07995919900226523237
   D 1  1.0
     1.76930448839024293283  1.0
   D 1  1.0
     0.48622668729967585903  1.0
   D 1  1.0
     0.33390123157489603881  1.0
   D 1  1.0
     0.19249575927525763201  1.0
   ****
$end

$molecule
   0 1
   C       0.000000      0.000000      0.000000
   H       0.629118      0.629118      0.629118
   H      -0.629118     -0.629118      0.629118
   H       0.629118     -0.629118     -0.629118
   H      -0.629118      0.629118     -0.629118
$end
--------------------------------------------------------------
 ----------------------------------------------------------------
             Standard Nuclear Orientation (Angstroms)
    I     Atom           X                Y                Z
 ----------------------------------------------------------------
    1      C       0.0000000000     0.0000000000     0.0000000000
    2      H       0.6291180000     0.6291180000     0.6291180000
    3      H      -0.6291180000    -0.6291180000     0.6291180000
    4      H       0.6291180000    -0.6291180000    -0.6291180000
    5      H      -0.6291180000     0.6291180000    -0.6291180000
 ----------------------------------------------------------------
 Nuclear Repulsion Energy =    13.4395278869 hartrees
 There are        5 alpha and        5 beta electrons

 Q-Chem warning in module /home/peve/qchem/forms1/BasisType.C, line 1522:

 Setting pure/cartesian flag to 2111 for general basis


 Requested basis set is non-standard
 There are 21 shells and 105 basis functions

 Total QAlloc Memory Limit   2000 MB
 Mega-Array Size        61 MB
 MEM_STATIC part        62 MB

                       Distance Matrix (Angstroms)
             C (  1)   H (  2)   H (  3)   H (  4)
   H (  2)  1.089664
   H (  3)  1.089664  1.779414
   H (  4)  1.089664  1.779414  1.779414
   H (  5)  1.089664  1.779414  1.779414  1.779414

 A cutoff of  1.0D-11 yielded    231 shell pairs
 There are      5775 function pairs (      8316 Cartesian)

 -------------------------------------------------------
 OpenMP Integral Computing Module                       
 Release: version 1.0, May 2013, Q-Chem Inc. Pittsburgh 
 -------------------------------------------------------
 Integral Job Info:
 Integral job number is                      11
 Integral operator is                         1
 short-range coefficients                     0
 long-range coefficients              100000000
 Omega coefficients                           0
 if combine SR and LR in K                    0
 Integral screening is                        0
 Integral computing path is                   2
 max size of driver memory is            800000
 size of driver memory is                593474
 size of scratch memory is             10760360
 max col of scratch BK array               1296
 max len of scratch array in speh3          155
 max len of scratch index in speh4           18
 max int batch size is                      520
 min int batch size is                       52
 fixed nKL is                                52
 max L of basis functions is                  2
 order of int derivative is                   0
 number of shells is                         21
 number of basis is                         126
 number of cartesian basis is               126
 number of contracted shell pairs           231
 number of primitive shell pairs            511
 maxK2 (contraction) of shell pair            9
 max number of K2 of shell pair               1
 max number of CS2 of shell pair            136
 max number of PS2 of shell pair            240
 mem total for path MDJ                  126322
 -------------------------------------------------------
 Smallest overlap matrix eigenvalue = 2.03E-03

 Scale SEOQF with 1.000000e+00/1.000000e+00/1.000000e-01

 Standard Electronic Orientation quadrupole field applied
 Nucleus-field energy     =     0.0000000015 hartrees
 Guess MOs from core Hamiltonian diagonalization
 A restricted Hartree-Fock SCF calculation will be
 performed using Pulay DIIS extrapolation
 SCF converges when DIIS error is below 1.0E-08
 using 12 threads for integral computing 
 ---------------------------------------
  Cycle       Energy         DIIS Error
 ---------------------------------------
    1     -10.9170356953      3.15E-02
    2     -12.6277158902      4.61E-03
    3     -12.6951987320      1.01E-03
    4     -12.6993081489      2.79E-04
    5     -12.6997299535      3.51E-05
    6     -12.6997355716      3.23E-06
    7     -12.6997356053      3.61E-07
    8     -12.6997356064      1.79E-07
    9     -12.6997356068      1.35E-07
   10     -12.6997356073      1.09E-07
   11     -12.6997356081      2.33E-08
   12     -12.6997356081      2.42E-09 Convergence criterion met
 ---------------------------------------
 SCF time:  CPU 15.44 s  wall 5.11 s
 SCF   energy in the final basis set = -12.6997356081
 Total energy in the final basis set = -12.6997356081

 --------------------------------------------------------------

                    Orbital Energies (a.u.)
 --------------------------------------------------------------

 Alpha MOs
 -- Occupied --
 -2.315  -0.737  -0.737  -0.733  -0.208
 -- Virtual --
  0.070   0.070   0.117   0.136   0.245   0.259   0.273   0.273
  0.299   0.299   0.299   0.311   0.315   0.315   0.318   0.332
  0.390   0.402   0.402   0.437   0.437   0.441   0.443   0.443
  0.785   0.794   0.794   0.796   0.797   0.797   0.893   0.899
  0.904   0.904   0.904   1.128   1.128   1.131   1.136   1.136
  1.169   1.169   1.174   1.209   1.271   1.273   1.675   1.683
  1.683   1.852   1.854   2.098   2.100   2.100   2.114   2.114
  2.126   2.211   2.216   2.216   2.335   2.336   2.360   2.361
  2.361   2.597   2.600   2.600   2.688   2.690   4.199   4.219
  4.219   4.220   4.399   4.399   4.400   4.624   4.632   4.679
  4.679   4.689   4.741   4.741   4.745   4.775   4.777   4.777
  5.032   5.041   5.362   5.366   5.407   5.407   5.416  18.196
 18.199  18.199  18.202  18.207
 --------------------------------------------------------------


                        RESTRICTED (RHF) MOLECULAR ORBITAL COEFFICIENTS
                         1         2         3         4         5         6
 eigenvalues:         -2.315    -0.737    -0.737    -0.733    -0.208     0.070
   1  C     d 1      0.00000   0.00000  -0.00000   0.00243   0.00641   0.00000
   2  C     d 2      0.00000   0.00233  -0.00000  -0.00000   0.00000   0.00000
   3  C     d 3      0.00007   0.00000  -0.00000   0.00000  -0.00000  -0.00000
   4  C     d 4     -0.00000   0.00000   0.00233   0.00000  -0.00000   0.00479
   5  C     d 5     -0.00000  -0.00000  -0.00000   0.00000  -0.00000  -0.00000
   6  C     d 1      0.00000   0.00000  -0.00000   0.02666   0.05450   0.00000
   7  C     d 2      0.00000   0.02567  -0.00000  -0.00000   0.00000   0.00000
   8  C     d 3      0.00084   0.00000  -0.00000   0.00000  -0.00000  -0.00000
   9  C     d 4     -0.00000   0.00000   0.02567   0.00000  -0.00000   0.04380
  10  C     d 5      0.00000  -0.00000  -0.00000   0.00000   0.00000  -0.00000
  11  C     d 1     -0.00000  -0.00000   0.00000  -0.64075   0.45634   0.00000
  12  C     d 2      0.00000  -0.65105   0.00000   0.00000   0.00000   0.00000
  13  C     d 3      0.01140   0.00000  -0.00000   0.00000  -0.00000  -0.00000
  14  C     d 4     -0.00000  -0.00000  -0.65105  -0.00000  -0.00000   0.31495
  15  C     d 5     -0.00000  -0.00000  -0.00000   0.00000  -0.00000  -0.00000
  16  C     d 1      0.00000   0.00000  -0.00000   1.86866  -0.36685  -0.00000
  17  C     d 2     -0.00000   1.87538  -0.00000  -0.00000  -0.00000  -0.00000
  18  C     d 3     -0.01016  -0.00000   0.00000  -0.00000   0.00000  -0.00000
  19  C     d 4      0.00000   0.00000   1.87538   0.00000   0.00000  -0.21101
  20  C     d 5     -0.00000   0.00000   0.00000   0.00000   0.00000  -0.00000
  21  C     d 1     -0.00000  -0.00000   0.00000  -0.99535   0.85969   0.00000
  22  C     d 2      0.00000  -0.98938   0.00000   0.00000   0.00000   0.00000
  23  C     d 3     -0.00178   0.00000  -0.00000   0.00000  -0.00000  -0.00000
  24  C     d 4     -0.00000  -0.00000  -0.98938  -0.00000  -0.00000   0.63741
  25  C     d 5      0.00000  -0.00000  -0.00000  -0.00000  -0.00000  -0.00000
  26  H 1   d 1     -0.39747  -0.04890  -0.04890   0.14655  -0.00582   0.00240
  27  H 1   d 2     -0.39693   0.14774  -0.05217  -0.05368   0.01180   0.00483
  28  H 1   d 3     -0.00027  -0.01293  -0.01293   0.02083  -0.03621   0.01427
  29  H 1   d 4     -0.39693  -0.05217   0.14774  -0.05368   0.01180  -0.02053
  30  H 1   d 5     -0.00000   0.01881  -0.01881  -0.00000  -0.00000   0.02250
  31  H 1   d 1      0.90613   0.31077   0.31077  -0.37007   0.02332  -0.05065
  32  H 1   d 2      0.90565  -0.37487   0.32391   0.32884  -0.09810  -0.06330
  33  H 1   d 3      0.00111  -0.00938  -0.00938   0.03126   0.09867  -0.04339
  34  H 1   d 4      0.90565   0.32391  -0.37487   0.32884  -0.09810   0.07763
  35  H 1   d 5      0.00000   0.03094  -0.03094  -0.00000   0.00000  -0.06041
  36  H 1   d 1     -0.39623  -0.21585  -0.21585   0.44215  -0.10187   0.06182
  37  H 1   d 2     -0.39590   0.44075  -0.23125  -0.23694   0.11585   0.07744
  38  H 1   d 3      0.00052   0.12283   0.12283  -0.25102  -0.03672   0.02378
  39  H 1   d 4     -0.39590  -0.23125   0.44075  -0.23694   0.11585  -0.13451
  40  H 1   d 5     -0.00000  -0.22469   0.22469   0.00000  -0.00000   0.01808
  41  H 1   d 1      0.09268  -0.12057  -0.12057   0.02667   0.08301   0.08124
  42  H 1   d 2      0.09295   0.02591  -0.12276  -0.12002   0.06116   0.07837
  43  H 1   d 3     -0.00002   0.05460   0.05460  -0.10330   0.05131  -0.01879
  44  H 1   d 4      0.09295  -0.12276   0.02591  -0.12002   0.06116   0.18777
  45  H 1   d 5     -0.00000  -0.09272   0.09272   0.00000   0.00000  -0.04770
  46  H 2   d 1     -0.39747   0.04890   0.04890   0.14655  -0.00582  -0.00240
  47  H 2   d 2      0.39693   0.14774  -0.05217   0.05368  -0.01180   0.00483
  48  H 2   d 3     -0.00027   0.01293   0.01293   0.02083  -0.03621  -0.01427
  49  H 2   d 4      0.39693  -0.05217   0.14774   0.05368  -0.01180  -0.02053
  50  H 2   d 5      0.00000  -0.01881   0.01881   0.00000   0.00000  -0.02250
  51  H 2   d 1      0.90613  -0.31077  -0.31077  -0.37007   0.02332   0.05065
  52  H 2   d 2     -0.90565  -0.37487   0.32391  -0.32884   0.09810  -0.06330
  53  H 2   d 3      0.00111   0.00938   0.00938   0.03126   0.09867   0.04339
  54  H 2   d 4     -0.90565   0.32391  -0.37487  -0.32884   0.09810   0.07763
  55  H 2   d 5     -0.00000  -0.03094   0.03094   0.00000  -0.00000   0.06041
  56  H 2   d 1     -0.39623   0.21585   0.21585   0.44215  -0.10187  -0.06182
  57  H 2   d 2      0.39590   0.44075  -0.23125   0.23694  -0.11585   0.07744
  58  H 2   d 3      0.00052  -0.12283  -0.12283  -0.25102  -0.03672  -0.02378
  59  H 2   d 4      0.39590  -0.23125   0.44075   0.23694  -0.11585  -0.13451
  60  H 2   d 5     -0.00000   0.22469  -0.22469  -0.00000   0.00000  -0.01808
  61  H 2   d 1      0.09268   0.12057   0.12057   0.02667   0.08301  -0.08124
  62  H 2   d 2     -0.09295   0.02591  -0.12276   0.12002  -0.06116   0.07837
  63  H 2   d 3     -0.00002  -0.05460  -0.05460  -0.10330   0.05131   0.01879
  64  H 2   d 4     -0.09295  -0.12276   0.02591   0.12002  -0.06116   0.18777
  65  H 2   d 5      0.00000   0.09272  -0.09272  -0.00000  -0.00000   0.04770
  66  H 3   d 1      0.39747   0.04890  -0.04890   0.14655  -0.00582   0.00240
  67  H 3   d 2     -0.39693   0.14774   0.05217   0.05368  -0.01180  -0.00483
  68  H 3   d 3     -0.00027  -0.01293   0.01293  -0.02083   0.03621  -0.01427
  69  H 3   d 4      0.39693   0.05217   0.14774  -0.05368   0.01180  -0.02053
  70  H 3   d 5      0.00000   0.01881   0.01881  -0.00000  -0.00000  -0.02250
  71  H 3   d 1     -0.90613  -0.31077   0.31077  -0.37007   0.02332  -0.05065
  72  H 3   d 2      0.90565  -0.37487  -0.32391  -0.32884   0.09810   0.06330
  73  H 3   d 3      0.00111  -0.00938   0.00938  -0.03126  -0.09867   0.04339
  74  H 3   d 4     -0.90565  -0.32391  -0.37487   0.32884  -0.09810   0.07763
  75  H 3   d 5      0.00000   0.03094   0.03094  -0.00000   0.00000   0.06041
  76  H 3   d 1      0.39623   0.21585  -0.21585   0.44215  -0.10187   0.06182
  77  H 3   d 2     -0.39590   0.44075   0.23125   0.23694  -0.11585  -0.07744
  78  H 3   d 3      0.00052   0.12283  -0.12283   0.25102   0.03672  -0.02378
  79  H 3   d 4      0.39590   0.23125   0.44075  -0.23694   0.11585  -0.13451
  80  H 3   d 5     -0.00000  -0.22469  -0.22469   0.00000  -0.00000  -0.01808
  81  H 3   d 1     -0.09268   0.12057  -0.12057   0.02667   0.08301   0.08124
  82  H 3   d 2      0.09295   0.02591   0.12276   0.12002  -0.06116  -0.07837
  83  H 3   d 3     -0.00002   0.05460  -0.05460   0.10330  -0.05131   0.01879
  84  H 3   d 4     -0.09295   0.12276   0.02591  -0.12002   0.06116   0.18777
  85  H 3   d 5      0.00000  -0.09272  -0.09272   0.00000   0.00000   0.04770
  86  H 4   d 1      0.39747  -0.04890   0.04890   0.14655  -0.00582  -0.00240
  87  H 4   d 2      0.39693   0.14774   0.05217  -0.05368   0.01180  -0.00483
  88  H 4   d 3     -0.00027   0.01293  -0.01293  -0.02083   0.03621   0.01427
  89  H 4   d 4     -0.39693   0.05217   0.14774   0.05368  -0.01180  -0.02053
  90  H 4   d 5     -0.00000  -0.01881  -0.01881   0.00000   0.00000   0.02250
  91  H 4   d 1     -0.90613   0.31077  -0.31077  -0.37007   0.02332   0.05065
  92  H 4   d 2     -0.90565  -0.37487  -0.32391   0.32884  -0.09810   0.06330
  93  H 4   d 3      0.00111   0.00938  -0.00938  -0.03126  -0.09867  -0.04339
  94  H 4   d 4      0.90565  -0.32391  -0.37487  -0.32884   0.09810   0.07763
  95  H 4   d 5      0.00000  -0.03094  -0.03094   0.00000  -0.00000  -0.06041
  96  H 4   d 1      0.39623  -0.21585   0.21585   0.44215  -0.10187  -0.06182
  97  H 4   d 2      0.39590   0.44075   0.23125  -0.23694   0.11585  -0.07744
  98  H 4   d 3      0.00052  -0.12283   0.12283   0.25102   0.03672   0.02378
  99  H 4   d 4     -0.39590   0.23125   0.44075   0.23694  -0.11585  -0.13451
 100  H 4   d 5     -0.00000   0.22469   0.22469  -0.00000   0.00000   0.01808
 101  H 4   d 1     -0.09268  -0.12057   0.12057   0.02667   0.08301  -0.08124
 102  H 4   d 2     -0.09295   0.02591   0.12276  -0.12002   0.06116  -0.07837
 103  H 4   d 3     -0.00002  -0.05460   0.05460   0.10330  -0.05131  -0.01879
 104  H 4   d 4      0.09295   0.12276   0.02591   0.12002  -0.06116   0.18777
 105  H 4   d 5     -0.00000   0.09272   0.09272  -0.00000  -0.00000  -0.04770
                         7         8         9        10        11        12
 eigenvalues:          0.070     0.117     0.136     0.245     0.259     0.273
   1  C     d 1     -0.00000   0.00000   0.00000  -0.00000  -0.00568  -0.00000
   2  C     d 2      0.00479  -0.00000   0.00000   0.00000  -0.00000  -0.00000
   3  C     d 3      0.00000   0.00406  -0.00000   0.00035   0.00000   0.00000
   4  C     d 4     -0.00000   0.00000   0.00000  -0.00000   0.00000  -0.00632
   5  C     d 5     -0.00000   0.00000   0.00361  -0.00000   0.00000   0.00000
   6  C     d 1     -0.00000   0.00000  -0.00000  -0.00000  -0.01809  -0.00000
   7  C     d 2      0.04380  -0.00000   0.00000   0.00000  -0.00000  -0.00000
   8  C     d 3      0.00000   0.03656  -0.00000   0.00303   0.00000   0.00000
   9  C     d 4     -0.00000   0.00000   0.00000  -0.00000   0.00000  -0.02482
  10  C     d 5     -0.00000   0.00000   0.03323  -0.00000  -0.00000   0.00000
  11  C     d 1     -0.00000   0.00000  -0.00000  -0.00000  -0.50035  -0.00000
  12  C     d 2      0.31495  -0.00000  -0.00000   0.00000  -0.00000  -0.00000
  13  C     d 3      0.00000   0.24400  -0.00000   0.01522   0.00000   0.00000
  14  C     d 4     -0.00000   0.00000  -0.00000  -0.00000   0.00000  -0.49905
  15  C     d 5     -0.00000   0.00000   0.21029  -0.00000   0.00000   0.00000
  16  C     d 1      0.00000  -0.00000   0.00000   0.00000   0.69553   0.00000
  17  C     d 2     -0.21101  -0.00000   0.00000  -0.00000   0.00000   0.00000
  18  C     d 3      0.00000   0.00006   0.00000  -0.00278  -0.00000   0.00000
  19  C     d 4     -0.00000   0.00000   0.00000   0.00000  -0.00000   0.62538
  20  C     d 5     -0.00000   0.00000   0.03469   0.00000  -0.00000   0.00000
  21  C     d 1     -0.00000   0.00000  -0.00000  -0.00000  -1.06865  -0.00000
  22  C     d 2      0.63741  -0.00000   0.00000   0.00000  -0.00000  -0.00000
  23  C     d 3      0.00000   0.23847  -0.00000   0.06235   0.00000  -0.00000
  24  C     d 4     -0.00000   0.00000   0.00000  -0.00000   0.00000  -1.11999
  25  C     d 5     -0.00000   0.00000   0.17268  -0.00000   0.00000   0.00000
  26  H 1   d 1      0.00240   0.02730  -0.00000   0.11422  -0.09477  -0.02573
  27  H 1   d 2     -0.02053  -0.01299   0.02537   0.11825  -0.02724  -0.02349
  28  H 1   d 3      0.01427  -0.05028   0.00000   0.00976   0.07660  -0.04531
  29  H 1   d 4      0.00483  -0.01299  -0.02537   0.11825  -0.02724  -0.09471
  30  H 1   d 5     -0.02250  -0.00000  -0.05667  -0.00000   0.00000  -0.07825
  31  H 1   d 1     -0.05065  -0.09297   0.00000  -0.20378   0.31572   0.12134
  32  H 1   d 2      0.07763   0.04785  -0.08908  -0.21877   0.12928   0.11647
  33  H 1   d 3     -0.04339   0.18175  -0.00000  -0.03282  -0.24300   0.15030
  34  H 1   d 4     -0.06330   0.04785   0.08908  -0.21877   0.12928   0.30746
  35  H 1   d 5      0.06041   0.00000   0.19904   0.00000  -0.00000   0.25412
  36  H 1   d 1      0.06182   0.06963  -0.00000  -0.02740  -0.26805  -0.14071
  37  H 1   d 2     -0.13451  -0.04090   0.06768  -0.01308  -0.14634  -0.13648
  38  H 1   d 3      0.02378  -0.16462   0.00000   0.03241   0.19415  -0.12801
  39  H 1   d 4      0.07744  -0.04090  -0.06768  -0.01308  -0.14634  -0.25868
  40  H 1   d 5     -0.01808  -0.00000  -0.18027  -0.00000   0.00000  -0.21165
  41  H 1   d 1      0.08124  -0.02398   0.00000   0.30500   0.55829   0.15604
  42  H 1   d 2      0.18777   0.02247  -0.04807   0.28620   0.13813   0.11112
  43  H 1   d 3     -0.01879   0.30926  -0.00000  -0.04291  -0.14525   0.10891
  44  H 1   d 4      0.07837   0.02247   0.04807   0.28620   0.13813   0.52389
  45  H 1   d 5      0.04770   0.00000   0.34078   0.00000  -0.00000   0.17396
  46  H 2   d 1     -0.00240   0.02730  -0.00000   0.11422  -0.09477   0.02573
  47  H 2   d 2     -0.02053   0.01299  -0.02537  -0.11825   0.02724  -0.02349
  48  H 2   d 3     -0.01427  -0.05028   0.00000   0.00976   0.07660   0.04531
  49  H 2   d 4      0.00483   0.01299   0.02537  -0.11825   0.02724  -0.09471
  50  H 2   d 5      0.02250  -0.00000  -0.05667   0.00000  -0.00000   0.07825
  51  H 2   d 1      0.05065  -0.09297   0.00000  -0.20378   0.31572  -0.12134
  52  H 2   d 2      0.07763  -0.04785   0.08908   0.21877  -0.12928   0.11647
  53  H 2   d 3      0.04339   0.18175  -0.00000  -0.03282  -0.24300  -0.15030
  54  H 2   d 4     -0.06330  -0.04785  -0.08908   0.21877  -0.12928   0.30746
  55  H 2   d 5     -0.06041   0.00000   0.19904  -0.00000   0.00000  -0.25412
  56  H 2   d 1     -0.06182   0.06963  -0.00000  -0.02740  -0.26805   0.14071
  57  H 2   d 2     -0.13451   0.04090  -0.06768   0.01308   0.14634  -0.13648
  58  H 2   d 3     -0.02378  -0.16462   0.00000   0.03241   0.19415   0.12801
  59  H 2   d 4      0.07744   0.04090   0.06768   0.01308   0.14634  -0.25868
  60  H 2   d 5      0.01808  -0.00000  -0.18027   0.00000  -0.00000   0.21165
  61  H 2   d 1     -0.08124  -0.02398   0.00000   0.30500   0.55829  -0.15604
  62  H 2   d 2      0.18777  -0.02247   0.04807  -0.28620  -0.13813   0.11112
  63  H 2   d 3      0.01879   0.30926  -0.00000  -0.04291  -0.14525  -0.10891
  64  H 2   d 4      0.07837  -0.02247  -0.04807  -0.28620  -0.13813   0.52389
  65  H 2   d 5     -0.04770   0.00000   0.34078  -0.00000  -0.00000  -0.17396
  66  H 3   d 1     -0.00240  -0.02730   0.00000  -0.11422  -0.09477  -0.02573
  67  H 3   d 2     -0.02053  -0.01299   0.02537   0.11825   0.02724   0.02349
  68  H 3   d 3      0.01427  -0.05028   0.00000   0.00976  -0.07660   0.04531
  69  H 3   d 4     -0.00483   0.01299   0.02537  -0.11825  -0.02724  -0.09471
  70  H 3   d 5     -0.02250  -0.00000  -0.05667   0.00000  -0.00000   0.07825
  71  H 3   d 1      0.05065   0.09297  -0.00000   0.20378   0.31572   0.12134
  72  H 3   d 2      0.07763   0.04785  -0.08908  -0.21877  -0.12928  -0.11647
  73  H 3   d 3     -0.04339   0.18175  -0.00000  -0.03282   0.24300  -0.15030
  74  H 3   d 4      0.06330  -0.04785  -0.08908   0.21877   0.12928   0.30746
  75  H 3   d 5      0.06041   0.00000   0.19904  -0.00000   0.00000  -0.25412
  76  H 3   d 1     -0.06182  -0.06963   0.00000   0.02740  -0.26805  -0.14071
  77  H 3   d 2     -0.13451  -0.04090   0.06768  -0.01308   0.14634   0.13648
  78  H 3   d 3      0.02378  -0.16462   0.00000   0.03241  -0.19415   0.12801
  79  H 3   d 4     -0.07744   0.04090   0.06768   0.01308  -0.14634  -0.25868
  80  H 3   d 5     -0.01808  -0.00000  -0.18027   0.00000  -0.00000   0.21165
  81  H 3   d 1     -0.08124   0.02398  -0.00000  -0.30500   0.55829   0.15604
  82  H 3   d 2      0.18777   0.02247  -0.04807   0.28620  -0.13813  -0.11112
  83  H 3   d 3     -0.01879   0.30926  -0.00000  -0.04291   0.14525  -0.10891
  84  H 3   d 4     -0.07837  -0.02247  -0.04807  -0.28620   0.13813   0.52389
  85  H 3   d 5      0.04770   0.00000   0.34078  -0.00000   0.00000  -0.17396
  86  H 4   d 1      0.00240  -0.02730   0.00000  -0.11422  -0.09477   0.02573
  87  H 4   d 2     -0.02053   0.01299  -0.02537  -0.11825  -0.02724   0.02349
  88  H 4   d 3     -0.01427  -0.05028   0.00000   0.00976  -0.07660  -0.04531
  89  H 4   d 4     -0.00483  -0.01299  -0.02537   0.11825   0.02724  -0.09471
  90  H 4   d 5      0.02250  -0.00000  -0.05667  -0.00000  -0.00000  -0.07825
  91  H 4   d 1     -0.05065   0.09297  -0.00000   0.20378   0.31572  -0.12134
  92  H 4   d 2      0.07763  -0.04785   0.08908   0.21877   0.12928  -0.11647
  93  H 4   d 3      0.04339   0.18175  -0.00000  -0.03282   0.24300   0.15030
  94  H 4   d 4      0.06330   0.04785   0.08908  -0.21877  -0.12928   0.30746
  95  H 4   d 5     -0.06041   0.00000   0.19904   0.00000   0.00000   0.25412
  96  H 4   d 1      0.06182  -0.06963   0.00000   0.02740  -0.26805   0.14071
  97  H 4   d 2     -0.13451   0.04090  -0.06768   0.01308  -0.14634   0.13648
  98  H 4   d 3     -0.02378  -0.16462   0.00000   0.03241  -0.19415  -0.12801
  99  H 4   d 4     -0.07744  -0.04090  -0.06768  -0.01308   0.14634  -0.25868
 100  H 4   d 5      0.01808  -0.00000  -0.18027  -0.00000  -0.00000  -0.21165
 101  H 4   d 1      0.08124   0.02398  -0.00000  -0.30500   0.55829  -0.15604
 102  H 4   d 2      0.18777  -0.02247   0.04807  -0.28620   0.13813  -0.11112
 103  H 4   d 3      0.01879   0.30926  -0.00000  -0.04291   0.14525   0.10891
 104  H 4   d 4     -0.07837   0.02247   0.04807   0.28620  -0.13813   0.52389
 105  H 4   d 5     -0.04770   0.00000   0.34078   0.00000   0.00000   0.17396
                        13        14        15        16        17        18
 eigenvalues:          0.273     0.299     0.299     0.299     0.311     0.315
   1  C     d 1      0.00000  -0.00000  -0.00000  -0.00000   0.00190  -0.00000
   2  C     d 2     -0.00632   0.00005   0.00000  -0.00000   0.00000   0.00281
   3  C     d 3     -0.00000  -0.00000  -0.00000   0.00000   0.00000   0.00000
   4  C     d 4      0.00000  -0.00000  -0.00005  -0.00000  -0.00000   0.00000
   5  C     d 5      0.00000  -0.00000   0.00000  -0.00000  -0.00000  -0.00000
   6  C     d 1      0.00000  -0.00000  -0.00000  -0.00000   0.00205  -0.00000
   7  C     d 2     -0.02482   0.00142  -0.00000  -0.00000   0.00000   0.00379
   8  C     d 3     -0.00000  -0.00000  -0.00000   0.00000   0.00000   0.00000
   9  C     d 4      0.00000  -0.00000  -0.00142  -0.00000  -0.00000   0.00000
  10  C     d 5      0.00000  -0.00000   0.00000  -0.00000  -0.00000  -0.00000
  11  C     d 1      0.00000   0.00000   0.00000  -0.00000   0.22437  -0.00000
  12  C     d 2     -0.49905  -0.01215   0.00000   0.00000   0.00000   0.34940
  13  C     d 3     -0.00000  -0.00000  -0.00000   0.00000   0.00000   0.00000
  14  C     d 4      0.00000   0.00000   0.01215   0.00000  -0.00000   0.00000
  15  C     d 5      0.00000  -0.00000   0.00000  -0.00000  -0.00000  -0.00000
  16  C     d 1     -0.00000  -0.00000  -0.00000   0.00000  -0.42915   0.00000
  17  C     d 2      0.62538   0.03700  -0.00000  -0.00000  -0.00000  -0.64621
  18  C     d 3     -0.00000  -0.00000  -0.00000  -0.00000  -0.00000  -0.00000
  19  C     d 4     -0.00000  -0.00000  -0.03700  -0.00000   0.00000  -0.00000
  20  C     d 5      0.00000  -0.00000   0.00000  -0.00000   0.00000   0.00000
  21  C     d 1      0.00000   0.00000   0.00000  -0.00000   0.62006  -0.00000
  22  C     d 2     -1.11999  -0.01907   0.00000   0.00000   0.00000   0.85628
  23  C     d 3     -0.00000  -0.00000  -0.00000   0.00000   0.00000   0.00000
  24  C     d 4      0.00000   0.00000   0.01907   0.00000  -0.00000   0.00000
  25  C     d 5      0.00000   0.00000  -0.00000  -0.00000  -0.00000  -0.00000
  26  H 1   d 1     -0.02573  -0.05359   0.05359   0.00000   0.03429  -0.05046
  27  H 1   d 2     -0.09471   0.00407  -0.05947   0.05833  -0.06258   0.03886
  28  H 1   d 3     -0.04531   0.05216  -0.05216  -0.00000   0.03852  -0.01633
  29  H 1   d 4     -0.02349   0.05947  -0.00407  -0.05833  -0.06258  -0.04599
  30  H 1   d 5      0.07825   0.01986   0.01987  -0.05602  -0.00000   0.03449
  31  H 1   d 1      0.12134   0.18804  -0.18804  -0.00000  -0.11364   0.14317
  32  H 1   d 2      0.30746  -0.01304   0.20596  -0.20363   0.20295  -0.13430
  33  H 1   d 3      0.15030  -0.18129   0.18129   0.00000  -0.12951   0.05990
  34  H 1   d 4      0.11647  -0.20596   0.01304   0.20364   0.20295   0.12822
  35  H 1   d 5     -0.25412  -0.06814  -0.06814   0.19459   0.00000  -0.12456
  36  H 1   d 1     -0.14071  -0.19431   0.19431   0.00000   0.09423  -0.11297
  37  H 1   d 2     -0.25868   0.01295  -0.21232   0.20974  -0.16922   0.09938
  38  H 1   d 3     -0.12801   0.19123  -0.19123  -0.00000   0.10610  -0.05636
  39  H 1   d 4     -0.13648   0.21232  -0.01295  -0.20974  -0.16922  -0.09867
  40  H 1   d 5      0.21165   0.07607   0.07608  -0.20710  -0.00000   0.12243
  41  H 1   d 1      0.15604   0.37330  -0.37330  -0.00000  -0.09641   0.28561
  42  H 1   d 2      0.52389  -0.00972   0.40909  -0.40022   0.28673  -0.13948
  43  H 1   d 3      0.10891  -0.29622   0.29622   0.00000  -0.35788   0.15575
  44  H 1   d 4      0.11112  -0.40909   0.00972   0.40022   0.28673   0.24625
  45  H 1   d 5     -0.17396  -0.12763  -0.12764   0.30770   0.00000  -0.32685
  46  H 2   d 1      0.02573   0.05359  -0.05359  -0.00000   0.03429   0.05046
  47  H 2   d 2     -0.09471   0.00407  -0.05947  -0.05833   0.06258   0.03886
  48  H 2   d 3      0.04531  -0.05216   0.05216   0.00000   0.03852   0.01633
  49  H 2   d 4     -0.02349   0.05947  -0.00407   0.05833   0.06258  -0.04599
  50  H 2   d 5     -0.07825  -0.01987  -0.01987  -0.05602  -0.00000  -0.03449
  51  H 2   d 1     -0.12134  -0.18804   0.18804   0.00000  -0.11364  -0.14317
  52  H 2   d 2      0.30746  -0.01304   0.20596   0.20364  -0.20295  -0.13430
  53  H 2   d 3     -0.15030   0.18129  -0.18129  -0.00000  -0.12951  -0.05990
  54  H 2   d 4      0.11647  -0.20596   0.01304  -0.20363  -0.20295   0.12822
  55  H 2   d 5      0.25412   0.06814   0.06814   0.19459   0.00000   0.12456
  56  H 2   d 1      0.14071   0.19431  -0.19431  -0.00000   0.09423   0.11297
  57  H 2   d 2     -0.25868   0.01295  -0.21232  -0.20974   0.16922   0.09938
  58  H 2   d 3      0.12801  -0.19123   0.19123   0.00000   0.10610   0.05636
  59  H 2   d 4     -0.13648   0.21232  -0.01295   0.20974   0.16922  -0.09867
  60  H 2   d 5     -0.21165  -0.07608  -0.07608  -0.20709  -0.00000  -0.12243
  61  H 2   d 1     -0.15604  -0.37330   0.37330   0.00000  -0.09641  -0.28561
  62  H 2   d 2      0.52389  -0.00971   0.40909   0.40022  -0.28673  -0.13948
  63  H 2   d 3     -0.10891   0.29622  -0.29622  -0.00000  -0.35788  -0.15575
  64  H 2   d 4      0.11112  -0.40909   0.00972  -0.40021  -0.28673   0.24625
  65  H 2   d 5      0.17396   0.12764   0.12764   0.30770   0.00000   0.32685
  66  H 3   d 1      0.02573   0.05359   0.05359  -0.00000   0.03429   0.05046
  67  H 3   d 2     -0.09471   0.00407   0.05947  -0.05833   0.06258   0.03886
  68  H 3   d 3     -0.04531   0.05216   0.05216  -0.00000  -0.03852  -0.01633
  69  H 3   d 4      0.02349  -0.05947  -0.00407  -0.05833  -0.06258   0.04599
  70  H 3   d 5      0.07825   0.01987  -0.01987   0.05602   0.00000   0.03449
  71  H 3   d 1     -0.12134  -0.18804  -0.18804   0.00000  -0.11364  -0.14317
  72  H 3   d 2      0.30746  -0.01304  -0.20596   0.20363  -0.20295  -0.13430
  73  H 3   d 3      0.15030  -0.18129  -0.18129   0.00000   0.12951   0.05990
  74  H 3   d 4     -0.11647   0.20596   0.01304   0.20363   0.20295  -0.12822
  75  H 3   d 5     -0.25412  -0.06814   0.06814  -0.19458  -0.00000  -0.12456
  76  H 3   d 1      0.14071   0.19431   0.19431  -0.00000   0.09423   0.11297
  77  H 3   d 2     -0.25868   0.01295   0.21232  -0.20974   0.16922   0.09938
  78  H 3   d 3     -0.12801   0.19123   0.19123  -0.00000  -0.10610  -0.05636
  79  H 3   d 4      0.13648  -0.21232  -0.01295  -0.20974  -0.16922   0.09867
  80  H 3   d 5      0.21165   0.07608  -0.07608   0.20709   0.00000   0.12243
  81  H 3   d 1     -0.15604  -0.37330  -0.37330   0.00000  -0.09641  -0.28561
  82  H 3   d 2      0.52389  -0.00971  -0.40909   0.40022  -0.28673  -0.13948
  83  H 3   d 3      0.10891  -0.29622  -0.29622   0.00000   0.35788   0.15575
  84  H 3   d 4     -0.11112   0.40909   0.00972   0.40021   0.28673  -0.24625
  85  H 3   d 5     -0.17396  -0.12764   0.12764  -0.30769  -0.00000  -0.32685
  86  H 4   d 1     -0.02573  -0.05359  -0.05359   0.00000   0.03429  -0.05046
  87  H 4   d 2     -0.09471   0.00407   0.05947   0.05833  -0.06258   0.03886
  88  H 4   d 3      0.04531  -0.05216  -0.05216   0.00000  -0.03852   0.01633
  89  H 4   d 4      0.02349  -0.05947  -0.00407   0.05833   0.06258   0.04599
  90  H 4   d 5     -0.07825  -0.01986   0.01987   0.05602   0.00000  -0.03449
  91  H 4   d 1      0.12134   0.18804   0.18804  -0.00000  -0.11364   0.14317
  92  H 4   d 2      0.30746  -0.01304  -0.20596  -0.20364   0.20295  -0.13430
  93  H 4   d 3     -0.15030   0.18129   0.18129  -0.00000   0.12951  -0.05990
  94  H 4   d 4     -0.11647   0.20596   0.01304  -0.20364  -0.20295  -0.12822
  95  H 4   d 5      0.25412   0.06814  -0.06814  -0.19459  -0.00000   0.12456
  96  H 4   d 1     -0.14071  -0.19431  -0.19431   0.00000   0.09423  -0.11297
  97  H 4   d 2     -0.25868   0.01295   0.21232   0.20974  -0.16922   0.09938
  98  H 4   d 3      0.12801  -0.19123  -0.19123   0.00000  -0.10610   0.05636
  99  H 4   d 4      0.13648  -0.21232  -0.01295   0.20974   0.16922   0.09867
 100  H 4   d 5     -0.21165  -0.07607   0.07608   0.20710   0.00000  -0.12243
 101  H 4   d 1      0.15604   0.37330   0.37330  -0.00000  -0.09641   0.28561
 102  H 4   d 2      0.52389  -0.00972  -0.40909  -0.40022   0.28673  -0.13948
 103  H 4   d 3     -0.10891   0.29622   0.29622  -0.00000   0.35788  -0.15575
 104  H 4   d 4     -0.11112   0.40909   0.00972  -0.40022  -0.28673  -0.24625
 105  H 4   d 5      0.17396   0.12763  -0.12764  -0.30770  -0.00000   0.32685
                        19        20        21        22        23        24
 eigenvalues:          0.315     0.318     0.332     0.390     0.402     0.402
   1  C     d 1     -0.00000   0.00000  -0.00000   0.00159   0.00000  -0.00000
   2  C     d 2      0.00000  -0.00000   0.00000  -0.00000   0.00186  -0.00000
   3  C     d 3      0.00000   0.00641  -0.00000  -0.00000   0.00000  -0.00000
   4  C     d 4     -0.00281   0.00000   0.00000   0.00000  -0.00000   0.00186
   5  C     d 5      0.00000   0.00000   0.00632  -0.00000   0.00000   0.00000
   6  C     d 1     -0.00000   0.00000   0.00000  -0.03014  -0.00000   0.00000
   7  C     d 2      0.00000  -0.00000   0.00000   0.00000  -0.02995  -0.00000
   8  C     d 3      0.00000   0.04587  -0.00000  -0.00000  -0.00000   0.00000
   9  C     d 4     -0.00379   0.00000   0.00000  -0.00000  -0.00000  -0.02995
  10  C     d 5      0.00000   0.00000   0.04775  -0.00000   0.00000   0.00000
  11  C     d 1     -0.00000   0.00000   0.00000   0.84557   0.00000  -0.00000
  12  C     d 2      0.00000  -0.00000   0.00000  -0.00000   0.87411   0.00000
  13  C     d 3      0.00000   0.45731  -0.00000  -0.00000   0.00000  -0.00000
  14  C     d 4     -0.34940   0.00000   0.00000   0.00000  -0.00000   0.87411
  15  C     d 5      0.00000   0.00000   0.42802  -0.00000  -0.00000  -0.00000
  16  C     d 1      0.00000  -0.00000  -0.00000  -1.96771  -0.00000   0.00000
  17  C     d 2     -0.00000   0.00000  -0.00000   0.00000  -2.01327  -0.00000
  18  C     d 3     -0.00000  -0.50715   0.00000  -0.00000  -0.00000   0.00000
  19  C     d 4      0.64621  -0.00000  -0.00000  -0.00000  -0.00000  -2.01327
  20  C     d 5     -0.00000  -0.00000  -0.42975   0.00000   0.00000   0.00000
  21  C     d 1     -0.00000   0.00000   0.00000   1.34527   0.00000  -0.00000
  22  C     d 2      0.00000  -0.00000   0.00000  -0.00000   1.43015   0.00000
  23  C     d 3      0.00000   1.14424  -0.00000   0.00000   0.00000  -0.00000
  24  C     d 4     -0.85628   0.00000   0.00000   0.00000   0.00000   1.43015
  25  C     d 5      0.00000   0.00000   1.08294  -0.00000  -0.00000  -0.00000
  26  H 1   d 1      0.05046  -0.07386   0.00000  -0.05794   0.16101   0.16101
  27  H 1   d 2      0.04599   0.02247  -0.05861   0.15173  -0.05789   0.16510
  28  H 1   d 3      0.01633   0.08840  -0.00000   0.10630  -0.04461  -0.04461
  29  H 1   d 4     -0.03886   0.02247   0.05861   0.15173   0.16510  -0.05789
  30  H 1   d 5      0.03449   0.00000   0.08174  -0.00000   0.08106  -0.08106
  31  H 1   d 1     -0.14317   0.24337  -0.00000   0.11232  -0.72483  -0.72483
  32  H 1   d 2     -0.12822  -0.09498   0.20682  -0.68817   0.11296  -0.73928
  33  H 1   d 3     -0.05990  -0.28512   0.00000  -0.48462   0.21697   0.21697
  34  H 1   d 4      0.13430  -0.09498  -0.20682  -0.68817  -0.73928   0.11296
  35  H 1   d 5     -0.12456  -0.00000  -0.26997   0.00000  -0.38549   0.38549
  36  H 1   d 1      0.11297  -0.21391   0.00000  -0.22816   0.66900   0.66900
  37  H 1   d 2      0.09867   0.10813  -0.20419   0.63554  -0.23180   0.68978
  38  H 1   d 3      0.05636   0.26671  -0.00000   0.68896  -0.31976  -0.31976
  39  H 1   d 4     -0.09938   0.10813   0.20419   0.63554   0.68978  -0.23180
  40  H 1   d 5      0.12243   0.00000   0.25563  -0.00000   0.56826  -0.56826
  41  H 1   d 1     -0.28561   0.26766  -0.00000  -0.05526  -0.25617  -0.25617
  42  H 1   d 2     -0.24625  -0.16789   0.30834  -0.23700  -0.07840  -0.26813
  43  H 1   d 3     -0.15575  -0.48618   0.00000  -0.40365   0.17554   0.17554
  44  H 1   d 4      0.13948  -0.16789  -0.30834  -0.23700  -0.26813  -0.07840
  45  H 1   d 5     -0.32685  -0.00000  -0.46412   0.00000  -0.32048   0.32048
  46  H 2   d 1     -0.05046  -0.07386   0.00000  -0.05794  -0.16101  -0.16101
  47  H 2   d 2      0.04599  -0.02247   0.05861  -0.15173  -0.05789   0.16510
  48  H 2   d 3     -0.01633   0.08840  -0.00000   0.10630   0.04461   0.04461
  49  H 2   d 4     -0.03886  -0.02247  -0.05861  -0.15173   0.16510  -0.05789
  50  H 2   d 5     -0.03449   0.00000   0.08174   0.00000  -0.08106   0.08106
  51  H 2   d 1      0.14317   0.24337  -0.00000   0.11232   0.72483   0.72483
  52  H 2   d 2     -0.12822   0.09498  -0.20682   0.68817   0.11296  -0.73928
  53  H 2   d 3      0.05990  -0.28512   0.00000  -0.48462  -0.21697  -0.21697
  54  H 2   d 4      0.13430   0.09498   0.20682   0.68817  -0.73928   0.11296
  55  H 2   d 5      0.12456  -0.00000  -0.26997  -0.00000   0.38549  -0.38549
  56  H 2   d 1     -0.11297  -0.21391   0.00000  -0.22816  -0.66900  -0.66900
  57  H 2   d 2      0.09867  -0.10813   0.20419  -0.63554  -0.23180   0.68978
  58  H 2   d 3     -0.05636   0.26671  -0.00000   0.68896   0.31976   0.31976
  59  H 2   d 4     -0.09938  -0.10813  -0.20419  -0.63554   0.68978  -0.23180
  60  H 2   d 5     -0.12243   0.00000   0.25563   0.00000  -0.56826   0.56826
  61  H 2   d 1      0.28561   0.26766  -0.00000  -0.05526   0.25617   0.25617
  62  H 2   d 2     -0.24625   0.16789  -0.30834   0.23700  -0.07840  -0.26813
  63  H 2   d 3      0.15575  -0.48618   0.00000  -0.40365  -0.17554  -0.17554
  64  H 2   d 4      0.13948   0.16789   0.30834   0.23700  -0.26813  -0.07840
  65  H 2   d 5      0.32685  -0.00000  -0.46412  -0.00000   0.32048  -0.32048
  66  H 3   d 1      0.05046   0.07386  -0.00000  -0.05794  -0.16101   0.16101
  67  H 3   d 2     -0.04599   0.02247  -0.05861  -0.15173  -0.05789  -0.16510
  68  H 3   d 3     -0.01633   0.08840  -0.00000  -0.10630  -0.04461   0.04461
  69  H 3   d 4     -0.03886  -0.02247  -0.05861   0.15173  -0.16510  -0.05789
  70  H 3   d 5     -0.03449   0.00000   0.08174  -0.00000   0.08106   0.08106
  71  H 3   d 1     -0.14317  -0.24337   0.00000   0.11232   0.72483  -0.72483
  72  H 3   d 2      0.12822  -0.09498   0.20682   0.68817   0.11296   0.73928
  73  H 3   d 3      0.05990  -0.28512   0.00000   0.48462   0.21697  -0.21697
  74  H 3   d 4      0.13430   0.09498   0.20682  -0.68817   0.73928   0.11296
  75  H 3   d 5      0.12456  -0.00000  -0.26997   0.00000  -0.38549  -0.38549
  76  H 3   d 1      0.11297   0.21391  -0.00000  -0.22816  -0.66900   0.66900
  77  H 3   d 2     -0.09867   0.10813  -0.20419  -0.63554  -0.23180  -0.68978
  78  H 3   d 3     -0.05636   0.26671  -0.00000  -0.68896  -0.31976   0.31976
  79  H 3   d 4     -0.09938  -0.10813  -0.20419   0.63554  -0.68978  -0.23180
  80  H 3   d 5     -0.12243   0.00000   0.25563  -0.00000   0.56826   0.56826
  81  H 3   d 1     -0.28561  -0.26766   0.00000  -0.05526   0.25617  -0.25617
  82  H 3   d 2      0.24625  -0.16789   0.30834   0.23700  -0.07840   0.26813
  83  H 3   d 3      0.15575  -0.48618   0.00000   0.40365   0.17554  -0.17554
  84  H 3   d 4      0.13948   0.16789   0.30834  -0.23700   0.26813  -0.07840
  85  H 3   d 5      0.32685  -0.00000  -0.46412   0.00000  -0.32048  -0.32048
  86  H 4   d 1     -0.05046   0.07386  -0.00000  -0.05794   0.16101  -0.16101
  87  H 4   d 2     -0.04599  -0.02247   0.05861   0.15173  -0.05789  -0.16510
  88  H 4   d 3      0.01633   0.08840  -0.00000  -0.10630   0.04461  -0.04461
  89  H 4   d 4     -0.03886   0.02247   0.05861  -0.15173  -0.16510  -0.05789
  90  H 4   d 5      0.03449   0.00000   0.08174   0.00000  -0.08106  -0.08106
  91  H 4   d 1      0.14317  -0.24337   0.00000   0.11232  -0.72483   0.72483
  92  H 4   d 2      0.12822   0.09498  -0.20682  -0.68817   0.11296   0.73928
  93  H 4   d 3     -0.05990  -0.28512   0.00000   0.48462  -0.21697   0.21697
  94  H 4   d 4      0.13430  -0.09498  -0.20682   0.68817   0.73928   0.11296
  95  H 4   d 5     -0.12456  -0.00000  -0.26997  -0.00000   0.38549   0.38549
  96  H 4   d 1     -0.11297   0.21391  -0.00000  -0.22816   0.66900  -0.66900
  97  H 4   d 2     -0.09867  -0.10813   0.20419   0.63554  -0.23180  -0.68978
  98  H 4   d 3      0.05636   0.26671  -0.00000  -0.68896   0.31976  -0.31976
  99  H 4   d 4     -0.09938   0.10813   0.20419  -0.63554  -0.68978  -0.23180
 100  H 4   d 5      0.12243   0.00000   0.25563   0.00000  -0.56826  -0.56826
 101  H 4   d 1      0.28561  -0.26766   0.00000  -0.05526  -0.25617   0.25617
 102  H 4   d 2      0.24625   0.16789  -0.30834  -0.23700  -0.07840   0.26813
 103  H 4   d 3     -0.15575  -0.48618   0.00000   0.40365  -0.17554   0.17554
 104  H 4   d 4      0.13948  -0.16789  -0.30834   0.23700   0.26813  -0.07840
 105  H 4   d 5     -0.32685  -0.00000  -0.46412  -0.00000   0.32048   0.32048
                        25        26        27        28        29        30
 eigenvalues:          0.437     0.437     0.441     0.443     0.443     0.785
   1  C     d 1     -0.00000  -0.00000   0.00000  -0.00000   0.00000  -0.00376
   2  C     d 2     -0.00000  -0.00005  -0.00000   0.00000   0.00000  -0.00000
   3  C     d 3      0.00000   0.00000  -0.00000   0.00467   0.00000   0.00000
   4  C     d 4      0.00005   0.00000  -0.00000  -0.00000   0.00000   0.00000
   5  C     d 5     -0.00000   0.00000   0.00000  -0.00000   0.00500   0.00000
   6  C     d 1     -0.00000  -0.00000   0.00000   0.00000   0.00000  -0.07648
   7  C     d 2      0.00000   0.00037  -0.00000  -0.00000   0.00000  -0.00000
   8  C     d 3      0.00000   0.00000  -0.00000  -0.00002  -0.00000   0.00000
   9  C     d 4     -0.00037  -0.00000  -0.00000   0.00000   0.00000   0.00000
  10  C     d 5     -0.00000   0.00000   0.00000  -0.00000   0.00124   0.00000
  11  C     d 1      0.00000   0.00000   0.00000  -0.00000   0.00000  -0.23981
  12  C     d 2     -0.00000  -0.01042   0.00000   0.00000  -0.00000  -0.00000
  13  C     d 3      0.00000   0.00000  -0.00000   0.59619   0.00000   0.00000
  14  C     d 4      0.01042   0.00000   0.00000  -0.00000  -0.00000   0.00000
  15  C     d 5     -0.00000   0.00000   0.00000  -0.00000   0.62394  -0.00000
  16  C     d 1     -0.00000  -0.00000   0.00000   0.00000   0.00000  -0.34398
  17  C     d 2      0.00000   0.02434  -0.00000  -0.00000   0.00000   0.00000
  18  C     d 3     -0.00000  -0.00000   0.00000  -1.14630  -0.00000   0.00000
  19  C     d 4     -0.02434  -0.00000  -0.00000   0.00000   0.00000  -0.00000
  20  C     d 5      0.00000  -0.00000  -0.00000   0.00000  -1.20205   0.00000
  21  C     d 1      0.00000   0.00000   0.00000  -0.00000  -0.00000   1.18118
  22  C     d 2     -0.00000  -0.02639   0.00000   0.00000   0.00000   0.00000
  23  C     d 3      0.00000   0.00000  -0.00000   1.43511   0.00000  -0.00000
  24  C     d 4      0.02639   0.00000   0.00000  -0.00000   0.00000  -0.00000
  25  C     d 5     -0.00000   0.00000   0.00000  -0.00000   1.53386  -0.00000
  26  H 1   d 1     -0.05206   0.05206   0.00000   0.07541   0.00000   0.00200
  27  H 1   d 2      0.05288  -0.00190   0.05212  -0.03642   0.05840   0.20827
  28  H 1   d 3     -0.11034   0.11034   0.00000   0.06883   0.00000  -0.28113
  29  H 1   d 4      0.00190  -0.05288  -0.05212  -0.03642  -0.05840   0.20827
  30  H 1   d 5      0.06527   0.06527   0.12996  -0.00000   0.07614  -0.00000
  31  H 1   d 1      0.18002  -0.18002  -0.00000  -0.28994  -0.00000   0.01218
  32  H 1   d 2     -0.18545   0.00723  -0.18211   0.13927  -0.22670  -0.72899
  33  H 1   d 3      0.38732  -0.38732  -0.00000  -0.18950  -0.00000   1.01974
  34  H 1   d 4     -0.00723   0.18545   0.18211   0.13927   0.22670  -0.72899
  35  H 1   d 5     -0.22831  -0.22831  -0.45517   0.00000  -0.21491   0.00000
  36  H 1   d 1     -0.17866   0.17866   0.00000   0.30069   0.00000  -0.06401
  37  H 1   d 2      0.18503  -0.00617   0.18154  -0.14371   0.23574   0.82958
  38  H 1   d 3     -0.38750   0.38750   0.00000   0.15154   0.00000  -1.05007
  39  H 1   d 4      0.00617  -0.18503  -0.18154  -0.14371  -0.23574   0.82958
  40  H 1   d 5      0.22664   0.22664   0.45349  -0.00000   0.17382  -0.00000
  41  H 1   d 1      0.69323  -0.69323  -0.00000  -1.09133  -0.00000  -0.18037
  42  H 1   d 2     -0.69570   0.00968  -0.69093   0.54069  -0.92384  -0.20028
  43  H 1   d 3      1.24953  -1.24953  -0.00000  -0.05337   0.00000   0.23627
  44  H 1   d 4     -0.00968   0.69570   0.69093   0.54069   0.92384  -0.20028
  45  H 1   d 5     -0.72134  -0.72134  -1.44672   0.00000  -0.08814   0.00000
  46  H 2   d 1      0.05206  -0.05206  -0.00000   0.07541   0.00000   0.00200
  47  H 2   d 2      0.05288  -0.00190  -0.05212   0.03642  -0.05840  -0.20827
  48  H 2   d 3      0.11034  -0.11034  -0.00000   0.06883   0.00000  -0.28113
  49  H 2   d 4      0.00190  -0.05288   0.05212   0.03642   0.05840  -0.20827
  50  H 2   d 5     -0.06527  -0.06527   0.12996  -0.00000   0.07614  -0.00000
  51  H 2   d 1     -0.18002   0.18002   0.00000  -0.28994  -0.00000   0.01218
  52  H 2   d 2     -0.18545   0.00723   0.18211  -0.13927   0.22670   0.72899
  53  H 2   d 3     -0.38732   0.38732   0.00000  -0.18950  -0.00000   1.01974
  54  H 2   d 4     -0.00723   0.18545  -0.18211  -0.13927  -0.22670   0.72899
  55  H 2   d 5      0.22831   0.22831  -0.45517   0.00000  -0.21491   0.00000
  56  H 2   d 1      0.17866  -0.17866  -0.00000   0.30069   0.00000  -0.06401
  57  H 2   d 2      0.18503  -0.00617  -0.18154   0.14371  -0.23574  -0.82958
  58  H 2   d 3      0.38750  -0.38750  -0.00000   0.15154   0.00000  -1.05007
  59  H 2   d 4      0.00617  -0.18503   0.18154   0.14371   0.23574  -0.82958
  60  H 2   d 5     -0.22664  -0.22664   0.45349  -0.00000   0.17382  -0.00000
  61  H 2   d 1     -0.69323   0.69323   0.00000  -1.09133  -0.00000  -0.18037
  62  H 2   d 2     -0.69570   0.00968   0.69093  -0.54069   0.92384   0.20028
  63  H 2   d 3     -1.24953   1.24953   0.00000  -0.05337  -0.00000   0.23627
  64  H 2   d 4     -0.00968   0.69570  -0.69093  -0.54069  -0.92384   0.20028
  65  H 2   d 5      0.72134   0.72134  -1.44672  -0.00000  -0.08814   0.00000
  66  H 3   d 1     -0.05206  -0.05206  -0.00000  -0.07541  -0.00000   0.00200
  67  H 3   d 2     -0.05288  -0.00190  -0.05212  -0.03642   0.05840  -0.20827
  68  H 3   d 3      0.11034   0.11034   0.00000   0.06883   0.00000   0.28113
  69  H 3   d 4      0.00190   0.05288  -0.05212   0.03642   0.05840   0.20827
  70  H 3   d 5     -0.06527   0.06527  -0.12996  -0.00000   0.07614   0.00000
  71  H 3   d 1      0.18002   0.18002   0.00000   0.28994   0.00000   0.01218
  72  H 3   d 2      0.18545   0.00723   0.18211   0.13927  -0.22670   0.72899
  73  H 3   d 3     -0.38732  -0.38732  -0.00000  -0.18950  -0.00000  -1.01974
  74  H 3   d 4     -0.00723  -0.18545   0.18211  -0.13927  -0.22670  -0.72899
  75  H 3   d 5      0.22831  -0.22831   0.45517   0.00000  -0.21491  -0.00000
  76  H 3   d 1     -0.17866  -0.17866  -0.00000  -0.30069  -0.00000  -0.06401
  77  H 3   d 2     -0.18503  -0.00617  -0.18154  -0.14371   0.23574  -0.82958
  78  H 3   d 3      0.38750   0.38750   0.00000   0.15154   0.00000   1.05007
  79  H 3   d 4      0.00617   0.18503  -0.18154   0.14371   0.23574   0.82958
  80  H 3   d 5     -0.22664   0.22664  -0.45349  -0.00000   0.17382   0.00000
  81  H 3   d 1      0.69323   0.69323   0.00000   1.09133   0.00000  -0.18037
  82  H 3   d 2      0.69570   0.00968   0.69093   0.54069  -0.92384   0.20028
  83  H 3   d 3     -1.24953  -1.24953  -0.00000  -0.05337  -0.00000  -0.23627
  84  H 3   d 4     -0.00968  -0.69570   0.69093  -0.54069  -0.92384  -0.20028
  85  H 3   d 5      0.72134  -0.72134   1.44672   0.00000  -0.08814  -0.00000
  86  H 4   d 1      0.05206   0.05206   0.00000  -0.07541  -0.00000   0.00200
  87  H 4   d 2     -0.05288  -0.00190   0.05212   0.03642  -0.05840   0.20827
  88  H 4   d 3     -0.11034  -0.11034  -0.00000   0.06883   0.00000   0.28113
  89  H 4   d 4      0.00190   0.05288   0.05212  -0.03642  -0.05840  -0.20827
  90  H 4   d 5      0.06527  -0.06527  -0.12996  -0.00000   0.07614   0.00000
  91  H 4   d 1     -0.18002  -0.18002  -0.00000   0.28994   0.00000   0.01218
  92  H 4   d 2      0.18545   0.00723  -0.18211  -0.13927   0.22670  -0.72899
  93  H 4   d 3      0.38732   0.38732   0.00000  -0.18950  -0.00000  -1.01974
  94  H 4   d 4     -0.00723  -0.18545  -0.18211   0.13927   0.22670   0.72899
  95  H 4   d 5     -0.22831   0.22831   0.45517   0.00000  -0.21491  -0.00000
  96  H 4   d 1      0.17866   0.17866   0.00000  -0.30069  -0.00000  -0.06401
  97  H 4   d 2     -0.18503  -0.00617   0.18154   0.14371  -0.23574   0.82958
  98  H 4   d 3     -0.38750  -0.38750  -0.00000   0.15154   0.00000   1.05007
  99  H 4   d 4      0.00617   0.18503   0.18154  -0.14371  -0.23574  -0.82958
 100  H 4   d 5      0.22664  -0.22664  -0.45349  -0.00000   0.17382   0.00000
 101  H 4   d 1     -0.69323  -0.69323  -0.00000   1.09133   0.00000  -0.18037
 102  H 4   d 2      0.69570   0.00968  -0.69093  -0.54069   0.92384  -0.20028
 103  H 4   d 3      1.24953   1.24953   0.00000  -0.05337   0.00000  -0.23627
 104  H 4   d 4     -0.00968  -0.69570  -0.69093   0.54069   0.92384   0.20028
 105  H 4   d 5     -0.72134   0.72134   1.44672   0.00000  -0.08814  -0.00000
                        31        32        33        34        35        36
 eigenvalues:          0.794     0.794     0.796     0.797     0.797     0.893
   1  C     d 1      0.00000  -0.00000  -0.00000   0.00000   0.00000   0.00000
   2  C     d 2     -0.00350  -0.00000   0.00000  -0.00127  -0.00000  -0.00000
   3  C     d 3     -0.00000   0.00000   0.00000   0.00000   0.00000  -0.00609
   4  C     d 4      0.00000  -0.00350   0.00000  -0.00000   0.00127   0.00000
   5  C     d 5     -0.00000  -0.00000  -0.00000   0.00000  -0.00000  -0.00000
   6  C     d 1      0.00000  -0.00000  -0.00000   0.00000   0.00000   0.00000
   7  C     d 2     -0.07225  -0.00000   0.00000  -0.02446   0.00000  -0.00000
   8  C     d 3     -0.00000   0.00000  -0.00000   0.00000   0.00000  -0.12773
   9  C     d 4      0.00000  -0.07225   0.00000  -0.00000   0.02446   0.00000
  10  C     d 5     -0.00000  -0.00000  -0.00000   0.00000  -0.00000  -0.00000
  11  C     d 1      0.00000  -0.00000  -0.00000  -0.00000  -0.00000  -0.00000
  12  C     d 2     -0.19603  -0.00000   0.00000  -0.08007  -0.00000   0.00000
  13  C     d 3     -0.00000   0.00000   0.00000   0.00000   0.00000   0.02920
  14  C     d 4      0.00000  -0.19603   0.00000  -0.00000   0.08007  -0.00000
  15  C     d 5     -0.00000  -0.00000  -0.00000   0.00000  -0.00000   0.00000
  16  C     d 1      0.00000  -0.00000  -0.00000   0.00000   0.00000   0.00000
  17  C     d 2     -0.39157  -0.00000   0.00000  -0.10535   0.00000  -0.00000
  18  C     d 3     -0.00000   0.00000  -0.00000   0.00000   0.00000  -2.00337
  19  C     d 4      0.00000  -0.39157   0.00000  -0.00000   0.10535   0.00000
  20  C     d 5     -0.00000  -0.00000   0.00000   0.00000  -0.00000  -0.00000
  21  C     d 1     -0.00000   0.00000   0.00000  -0.00000  -0.00000  -0.00000
  22  C     d 2      1.14338   0.00000  -0.00000   0.37036  -0.00000   0.00000
  23  C     d 3      0.00000  -0.00000   0.00000  -0.00000  -0.00000   2.44759
  24  C     d 4     -0.00000   1.14338  -0.00000   0.00000  -0.37036  -0.00000
  25  C     d 5     -0.00000  -0.00000   0.00000  -0.00000   0.00000   0.00000
  26  H 1   d 1      0.30402   0.30402   0.00000  -0.24331   0.24331  -0.26588
  27  H 1   d 2      0.00143   0.08840  -0.32508  -0.00524  -0.37208   0.10566
  28  H 1   d 3      0.05334   0.05334  -0.00000   0.29281  -0.29281   0.29247
  29  H 1   d 4      0.08840   0.00143   0.32508   0.37208   0.00524   0.10566
  30  H 1   d 5     -0.28282   0.28282   0.29047   0.05824   0.05824   0.00000
  31  H 1   d 1     -1.09344  -1.09344  -0.00000   0.92304  -0.92304   0.92265
  32  H 1   d 2      0.01077  -0.28544   1.21113   0.02478   1.37050  -0.37869
  33  H 1   d 3     -0.17273  -0.17273   0.00000  -1.10332   1.10332  -0.98263
  34  H 1   d 4     -0.28544   0.01077  -1.21113  -1.37050  -0.02478  -0.37869
  35  H 1   d 5      1.03139  -1.03139  -1.10895  -0.23864  -0.23864  -0.00000
  36  H 1   d 1      1.23653   1.23653   0.00000  -1.04546   1.04546  -0.84347
  37  H 1   d 2     -0.05996   0.32089  -1.37836  -0.04409  -1.55377   0.35930
  38  H 1   d 3      0.15179   0.15179  -0.00000   1.21504  -1.21504   0.87732
  39  H 1   d 4      0.32089  -0.05996   1.37836   1.55377   0.04409   0.35930
  40  H 1   d 5     -1.07422   1.07422   1.23562   0.28750   0.28750   0.00000
  41  H 1   d 1     -0.28923  -0.28923  -0.00000   0.23573  -0.23573   0.07531
  42  H 1   d 2     -0.17193  -0.07499   0.31563  -0.05467   0.35570  -0.02702
  43  H 1   d 3     -0.05297  -0.05297   0.00000  -0.23754   0.23754  -0.35752
  44  H 1   d 4     -0.07499  -0.17193  -0.31563  -0.35570   0.05467  -0.02702
  45  H 1   d 5      0.23739  -0.23739  -0.23061  -0.04297  -0.04297  -0.00000
  46  H 2   d 1     -0.30402  -0.30402  -0.00000   0.24331  -0.24331  -0.26588
  47  H 2   d 2      0.00143   0.08840   0.32508  -0.00524  -0.37208  -0.10566
  48  H 2   d 3     -0.05334  -0.05334   0.00000  -0.29281   0.29281   0.29247
  49  H 2   d 4      0.08840   0.00143  -0.32508   0.37208   0.00524  -0.10566
  50  H 2   d 5      0.28282  -0.28282   0.29047  -0.05823  -0.05824   0.00000
  51  H 2   d 1      1.09344   1.09344   0.00000  -0.92304   0.92304   0.92265
  52  H 2   d 2      0.01077  -0.28544  -1.21113   0.02478   1.37050   0.37869
  53  H 2   d 3      0.17273   0.17273  -0.00000   1.10332  -1.10332  -0.98263
  54  H 2   d 4     -0.28544   0.01077   1.21113  -1.37050  -0.02478   0.37869
  55  H 2   d 5     -1.03139   1.03139  -1.10895   0.23864   0.23864  -0.00000
  56  H 2   d 1     -1.23653  -1.23653  -0.00000   1.04546  -1.04546  -0.84347
  57  H 2   d 2     -0.05996   0.32089   1.37836  -0.04409  -1.55377  -0.35930
  58  H 2   d 3     -0.15179  -0.15179   0.00000  -1.21504   1.21504   0.87732
  59  H 2   d 4      0.32089  -0.05996  -1.37836   1.55377   0.04409  -0.35930
  60  H 2   d 5      1.07422  -1.07422   1.23562  -0.28750  -0.28750   0.00000
  61  H 2   d 1      0.28923   0.28923   0.00000  -0.23573   0.23573   0.07531
  62  H 2   d 2     -0.17193  -0.07499  -0.31563  -0.05467   0.35570   0.02702
  63  H 2   d 3      0.05297   0.05297  -0.00000   0.23754  -0.23754  -0.35752
  64  H 2   d 4     -0.07499  -0.17193   0.31563  -0.35570   0.05467   0.02702
  65  H 2   d 5     -0.23739   0.23739  -0.23061   0.04297   0.04297  -0.00000
  66  H 3   d 1     -0.30402   0.30402  -0.00000   0.24331   0.24331   0.26588
  67  H 3   d 2      0.00143  -0.08840   0.32508  -0.00524   0.37208   0.10566
  68  H 3   d 3      0.05334  -0.05334  -0.00000   0.29281   0.29281   0.29247
  69  H 3   d 4     -0.08840   0.00143   0.32508  -0.37208   0.00524  -0.10566
  70  H 3   d 5     -0.28282  -0.28282  -0.29047   0.05823  -0.05824   0.00000
  71  H 3   d 1      1.09344  -1.09344   0.00000  -0.92304  -0.92304  -0.92265
  72  H 3   d 2      0.01077   0.28544  -1.21113   0.02478  -1.37050  -0.37869
  73  H 3   d 3     -0.17273   0.17273   0.00000  -1.10332  -1.10332  -0.98263
  74  H 3   d 4      0.28544   0.01077  -1.21113   1.37050  -0.02478   0.37869
  75  H 3   d 5      1.03139   1.03139   1.10895  -0.23864   0.23864  -0.00000
  76  H 3   d 1     -1.23653   1.23653  -0.00000   1.04546   1.04546   0.84347
  77  H 3   d 2     -0.05996  -0.32089   1.37836  -0.04409   1.55377   0.35930
  78  H 3   d 3      0.15179  -0.15179  -0.00000   1.21504   1.21504   0.87732
  79  H 3   d 4     -0.32089  -0.05996   1.37836  -1.55377   0.04409  -0.35930
  80  H 3   d 5     -1.07422  -1.07422  -1.23562   0.28750  -0.28750   0.00000
  81  H 3   d 1      0.28923  -0.28923   0.00000  -0.23573  -0.23573  -0.07531
  82  H 3   d 2     -0.17193   0.07499  -0.31563  -0.05467  -0.35570  -0.02702
  83  H 3   d 3     -0.05297   0.05297   0.00000  -0.23754  -0.23754  -0.35752
  84  H 3   d 4      0.07499  -0.17193  -0.31563   0.35570   0.05467   0.02702
  85  H 3   d 5      0.23739   0.23739   0.23061  -0.04297   0.04297  -0.00000
  86  H 4   d 1      0.30402  -0.30402   0.00000  -0.24331  -0.24331   0.26588
  87  H 4   d 2      0.00143  -0.08840  -0.32508  -0.00524   0.37208  -0.10566
  88  H 4   d 3     -0.05334   0.05334   0.00000  -0.29281  -0.29281   0.29247
  89  H 4   d 4     -0.08840   0.00143  -0.32508  -0.37208   0.00524   0.10566
  90  H 4   d 5      0.28282   0.28282  -0.29047  -0.05824   0.05824   0.00000
  91  H 4   d 1     -1.09344   1.09344  -0.00000   0.92304   0.92304  -0.92265
  92  H 4   d 2      0.01077   0.28544   1.21113   0.02478  -1.37050   0.37869
  93  H 4   d 3      0.17273  -0.17273  -0.00000   1.10332   1.10332  -0.98263
  94  H 4   d 4      0.28544   0.01077   1.21113   1.37050  -0.02478  -0.37869
  95  H 4   d 5     -1.03139  -1.03139   1.10895   0.23864  -0.23864  -0.00000
  96  H 4   d 1      1.23653  -1.23653   0.00000  -1.04546  -1.04546   0.84347
  97  H 4   d 2     -0.05996  -0.32089  -1.37836  -0.04409   1.55377  -0.35930
  98  H 4   d 3     -0.15179   0.15179   0.00000  -1.21504  -1.21504   0.87732
  99  H 4   d 4     -0.32089  -0.05996  -1.37836  -1.55377   0.04409   0.35930
 100  H 4   d 5      1.07422   1.07422  -1.23562  -0.28750   0.28750   0.00000
 101  H 4   d 1     -0.28923   0.28923  -0.00000   0.23573   0.23573  -0.07531
 102  H 4   d 2     -0.17193   0.07499   0.31563  -0.05467  -0.35570   0.02702
 103  H 4   d 3      0.05297  -0.05297  -0.00000   0.23754   0.23754  -0.35752
 104  H 4   d 4      0.07499  -0.17193   0.31563   0.35570   0.05467  -0.02702
 105  H 4   d 5     -0.23739  -0.23739   0.23061   0.04297  -0.04297  -0.00000
                        37        38        39        40        41        42
 eigenvalues:          0.899     0.904     0.904     0.904     1.128     1.128
   1  C     d 1      0.00000  -0.00195   0.00000  -0.00000   0.00000  -0.00000
   2  C     d 2      0.00000   0.00000   0.00000  -0.00215   0.00000   0.00138
   3  C     d 3      0.00000  -0.00000  -0.00000   0.00000  -0.00000   0.00000
   4  C     d 4      0.00000  -0.00000  -0.00215   0.00000   0.00138  -0.00000
   5  C     d 5     -0.00631  -0.00000  -0.00000  -0.00000  -0.00000  -0.00000
   6  C     d 1      0.00000  -0.12555   0.00000  -0.00000   0.00000  -0.00000
   7  C     d 2      0.00000   0.00000   0.00000  -0.12476   0.00000   0.00178
   8  C     d 3      0.00000  -0.00000  -0.00000   0.00000   0.00000  -0.00000
   9  C     d 4      0.00000  -0.00000  -0.12476  -0.00000   0.00178   0.00000
  10  C     d 5     -0.12507  -0.00000  -0.00000  -0.00000   0.00000   0.00000
  11  C     d 1     -0.00000   0.85979  -0.00000   0.00000  -0.00000   0.00000
  12  C     d 2     -0.00000  -0.00000  -0.00000   0.85691  -0.00000  -0.57242
  13  C     d 3      0.00000   0.00000   0.00000  -0.00000  -0.00000   0.00000
  14  C     d 4     -0.00000   0.00000   0.85691   0.00000  -0.57242   0.00000
  15  C     d 5     -0.01170   0.00000  -0.00000  -0.00000  -0.00000  -0.00000
  16  C     d 1      0.00000  -3.23603   0.00000  -0.00000   0.00000  -0.00000
  17  C     d 2      0.00000   0.00000   0.00000  -3.26003   0.00000   1.94588
  18  C     d 3      0.00000  -0.00000  -0.00000   0.00000   0.00000  -0.00000
  19  C     d 4      0.00000  -0.00000  -3.26003  -0.00000   1.94588  -0.00000
  20  C     d 5     -1.89377  -0.00000  -0.00000  -0.00000   0.00000   0.00000
  21  C     d 1     -0.00000   2.64788  -0.00000   0.00000  -0.00000   0.00000
  22  C     d 2     -0.00000  -0.00000  -0.00000   2.63279  -0.00000  -1.89956
  23  C     d 3     -0.00000   0.00000   0.00000  -0.00000  -0.00000   0.00000
  24  C     d 4     -0.00000   0.00000   2.63279   0.00000  -1.89956   0.00000
  25  C     d 5      2.37532   0.00000   0.00000   0.00000  -0.00000  -0.00000
  26  H 1   d 1      0.00000   0.16878  -0.12793  -0.12792   0.20882   0.20882
  27  H 1   d 2     -0.23140  -0.12270  -0.13126   0.15732   0.20896   0.45720
  28  H 1   d 3     -0.00000  -0.03512   0.02824   0.02824  -0.11935  -0.11935
  29  H 1   d 4      0.23140  -0.12270   0.15732  -0.13126   0.45720   0.20896
  30  H 1   d 5      0.28284   0.00000   0.02680  -0.02680  -0.21586   0.21586
  31  H 1   d 1     -0.00000  -0.64761   0.37140   0.37140  -0.64249  -0.64249
  32  H 1   d 2      0.82059   0.34984   0.38675  -0.60762  -0.64616  -1.55626
  33  H 1   d 3      0.00000   0.05112  -0.06250  -0.06250   0.40051   0.40051
  34  H 1   d 4     -0.82059   0.34984  -0.60762   0.38675  -1.55626  -0.64616
  35  H 1   d 5     -0.94400  -0.00000  -0.02724   0.02724   0.73582  -0.73582
  36  H 1   d 1      0.00000   0.74478  -0.38600  -0.38600   0.78470   0.78470
  37  H 1   d 2     -0.77132  -0.36022  -0.39962   0.70382   0.79332   1.84457
  38  H 1   d 3     -0.00000   0.09174  -0.00545  -0.00545  -0.33453  -0.33453
  39  H 1   d 4      0.77132  -0.36022   0.70382  -0.39962   1.84457   0.79332
  40  H 1   d 5      0.83456  -0.00000  -0.09648   0.09648  -0.63313   0.63313
  41  H 1   d 1     -0.00000  -0.32982   0.08602   0.08602  -0.12731  -0.12731
  42  H 1   d 2      0.09216   0.08797   0.09463  -0.32168  -0.12669  -0.04303
  43  H 1   d 3      0.00000  -0.07810   0.02751   0.02751   0.04760   0.04760
  44  H 1   d 4     -0.09216   0.08797  -0.32168   0.09463  -0.04303  -0.12669
  45  H 1   d 5     -0.35114   0.00000   0.07769  -0.07769   0.09783  -0.09783
  46  H 2   d 1     -0.00000   0.16878   0.12792   0.12793  -0.20882  -0.20882
  47  H 2   d 2      0.23140   0.12270  -0.13126   0.15732   0.20896   0.45720
  48  H 2   d 3     -0.00000  -0.03512  -0.02824  -0.02824   0.11935   0.11935
  49  H 2   d 4     -0.23140   0.12270   0.15732  -0.13126   0.45720   0.20896
  50  H 2   d 5      0.28284  -0.00000  -0.02680   0.02680   0.21586  -0.21586
  51  H 2   d 1      0.00000  -0.64761  -0.37140  -0.37140   0.64249   0.64249
  52  H 2   d 2     -0.82059  -0.34984   0.38675  -0.60762  -0.64616  -1.55626
  53  H 2   d 3      0.00000   0.05111   0.06250   0.06250  -0.40051  -0.40051
  54  H 2   d 4      0.82059  -0.34984  -0.60762   0.38675  -1.55626  -0.64616
  55  H 2   d 5     -0.94400   0.00000   0.02724  -0.02724  -0.73582   0.73582
  56  H 2   d 1     -0.00000   0.74478   0.38600   0.38601  -0.78470  -0.78470
  57  H 2   d 2      0.77132   0.36022  -0.39962   0.70382   0.79332   1.84457
  58  H 2   d 3     -0.00000   0.09174   0.00545   0.00545   0.33453   0.33453
  59  H 2   d 4     -0.77132   0.36022   0.70382  -0.39962   1.84457   0.79332
  60  H 2   d 5      0.83456   0.00000   0.09648  -0.09648   0.63313  -0.63313
  61  H 2   d 1      0.00000  -0.32982  -0.08602  -0.08602   0.12731   0.12731
  62  H 2   d 2     -0.09216  -0.08797   0.09463  -0.32168  -0.12669  -0.04303
  63  H 2   d 3      0.00000  -0.07810  -0.02751  -0.02751  -0.04760  -0.04760
  64  H 2   d 4      0.09216  -0.08797  -0.32168   0.09463  -0.04303  -0.12669
  65  H 2   d 5     -0.35114  -0.00000  -0.07769   0.07769  -0.09783   0.09783
  66  H 3   d 1      0.00000   0.16878  -0.12793   0.12793   0.20882  -0.20882
  67  H 3   d 2     -0.23140   0.12270   0.13126   0.15732  -0.20896   0.45720
  68  H 3   d 3     -0.00000   0.03512  -0.02824   0.02824   0.11935  -0.11935
  69  H 3   d 4     -0.23140  -0.12270   0.15732   0.13126   0.45720  -0.20896
  70  H 3   d 5      0.28284   0.00000  -0.02680  -0.02680   0.21586   0.21586
  71  H 3   d 1     -0.00000  -0.64761   0.37140  -0.37140  -0.64249   0.64249
  72  H 3   d 2      0.82059  -0.34984  -0.38675  -0.60762   0.64616  -1.55626
  73  H 3   d 3      0.00000  -0.05111   0.06250  -0.06250  -0.40051   0.40051
  74  H 3   d 4      0.82059   0.34984  -0.60762  -0.38675  -1.55626   0.64616
  75  H 3   d 5     -0.94400  -0.00000   0.02724   0.02724  -0.73582  -0.73582
  76  H 3   d 1      0.00000   0.74478  -0.38600   0.38601   0.78470  -0.78470
  77  H 3   d 2     -0.77132   0.36022   0.39962   0.70382  -0.79332   1.84457
  78  H 3   d 3     -0.00000  -0.09174   0.00545  -0.00545   0.33453  -0.33453
  79  H 3   d 4     -0.77132  -0.36022   0.70382   0.39962   1.84457  -0.79332
  80  H 3   d 5      0.83456  -0.00000   0.09648   0.09648   0.63313   0.63313
  81  H 3   d 1     -0.00000  -0.32982   0.08602  -0.08602  -0.12731   0.12731
  82  H 3   d 2      0.09216  -0.08797  -0.09463  -0.32168   0.12669  -0.04303
  83  H 3   d 3      0.00000   0.07810  -0.02751   0.02751  -0.04760   0.04760
  84  H 3   d 4      0.09216   0.08797  -0.32168  -0.09463  -0.04303   0.12669
  85  H 3   d 5     -0.35114   0.00000  -0.07769  -0.07769  -0.09783  -0.09783
  86  H 4   d 1     -0.00000   0.16878   0.12792  -0.12792  -0.20882   0.20882
  87  H 4   d 2      0.23140  -0.12270   0.13126   0.15732  -0.20896   0.45720
  88  H 4   d 3     -0.00000   0.03512   0.02824  -0.02824  -0.11935   0.11935
  89  H 4   d 4      0.23140   0.12270   0.15732   0.13126   0.45720  -0.20896
  90  H 4   d 5      0.28284  -0.00000   0.02680   0.02680  -0.21586  -0.21586
  91  H 4   d 1      0.00000  -0.64761  -0.37140   0.37140   0.64249  -0.64249
  92  H 4   d 2     -0.82059   0.34984  -0.38675  -0.60762   0.64616  -1.55626
  93  H 4   d 3      0.00000  -0.05112  -0.06250   0.06250   0.40051  -0.40051
  94  H 4   d 4     -0.82059  -0.34984  -0.60762  -0.38675  -1.55626   0.64616
  95  H 4   d 5     -0.94400   0.00000  -0.02724  -0.02724   0.73582   0.73582
  96  H 4   d 1     -0.00000   0.74478   0.38600  -0.38600  -0.78470   0.78470
  97  H 4   d 2      0.77132  -0.36022   0.39962   0.70382  -0.79332   1.84457
  98  H 4   d 3     -0.00000  -0.09174  -0.00545   0.00545  -0.33453   0.33453
  99  H 4   d 4      0.77132   0.36022   0.70382   0.39962   1.84457  -0.79332
 100  H 4   d 5      0.83456   0.00000  -0.09648  -0.09648  -0.63313  -0.63313
 101  H 4   d 1      0.00000  -0.32982  -0.08602   0.08602   0.12731  -0.12731
 102  H 4   d 2     -0.09216   0.08797  -0.09463  -0.32168   0.12669  -0.04303
 103  H 4   d 3      0.00000   0.07810   0.02751  -0.02751   0.04760  -0.04760
 104  H 4   d 4     -0.09216  -0.08797  -0.32168  -0.09463  -0.04303   0.12669
 105  H 4   d 5     -0.35114  -0.00000   0.07769   0.07769   0.09783   0.09783
                        43        44        45        46        47        48
 eigenvalues:          1.131     1.136     1.136     1.169     1.169     1.174
   1  C     d 1      0.00139   0.00000   0.00000  -0.00000   0.00000   0.00000
   2  C     d 2      0.00000  -0.00000   0.00000   0.00000  -0.00008  -0.00000
   3  C     d 3      0.00000   0.00000  -0.00191  -0.00000   0.00000  -0.00000
   4  C     d 4     -0.00000  -0.00000  -0.00000  -0.00008   0.00000  -0.00000
   5  C     d 5      0.00000  -0.00171  -0.00000   0.00000   0.00000   0.00000
   6  C     d 1      0.00540   0.00000   0.00000  -0.00000   0.00000   0.00000
   7  C     d 2      0.00000  -0.00000   0.00000  -0.00000   0.00178  -0.00000
   8  C     d 3     -0.00000  -0.00000   0.07750   0.00000  -0.00000   0.00000
   9  C     d 4     -0.00000  -0.00000  -0.00000   0.00178  -0.00000  -0.00000
  10  C     d 5     -0.00000   0.08070   0.00000  -0.00000  -0.00000  -0.00000
  11  C     d 1     -0.58953  -0.00000  -0.00000   0.00000  -0.00000  -0.00000
  12  C     d 2     -0.00000   0.00000  -0.00000   0.00000  -0.01612   0.00000
  13  C     d 3      0.00000   0.00000  -0.92903  -0.00000   0.00000  -0.00000
  14  C     d 4      0.00000   0.00000   0.00000  -0.01612  -0.00000   0.00000
  15  C     d 5      0.00000  -0.91370  -0.00000   0.00000   0.00000   0.00000
  16  C     d 1      2.01564   0.00000   0.00000  -0.00000   0.00000   0.00000
  17  C     d 2      0.00000  -0.00000   0.00000   0.00000   0.04284  -0.00000
  18  C     d 3     -0.00000  -0.00000   2.85548   0.00000  -0.00000   0.00000
  19  C     d 4     -0.00000  -0.00000  -0.00000   0.04284   0.00000  -0.00000
  20  C     d 5     -0.00000   2.86245   0.00000  -0.00000  -0.00000  -0.00000
  21  C     d 1     -1.95976  -0.00000  -0.00000   0.00000  -0.00000  -0.00000
  22  C     d 2     -0.00000   0.00000  -0.00000  -0.00000  -0.03549   0.00000
  23  C     d 3      0.00000   0.00000  -1.50923  -0.00000   0.00000  -0.00000
  24  C     d 4      0.00000   0.00000   0.00000  -0.03549  -0.00000   0.00000
  25  C     d 5      0.00000  -1.54540  -0.00000   0.00000   0.00000   0.00000
  26  H 1   d 1      0.44758   0.00000  -0.27790   0.22937   0.22937  -0.00000
  27  H 1   d 2      0.21062  -0.26999   0.21229  -0.23099  -0.01005  -0.22760
  28  H 1   d 3      0.25635   0.00000  -0.22562   0.41897   0.41897  -0.00000
  29  H 1   d 4      0.21062   0.26999   0.21229  -0.01005  -0.23099   0.22760
  30  H 1   d 5      0.00000  -0.26222  -0.00000  -0.24665   0.24665  -0.48731
  31  H 1   d 1     -1.52212  -0.00000   1.13859  -0.83737  -0.83737   0.00000
  32  H 1   d 2     -0.64975   1.06528  -0.79188   0.84562   0.03268   0.83008
  33  H 1   d 3     -0.86734  -0.00000   0.65571  -1.53048  -1.53048   0.00000
  34  H 1   d 4     -0.64975  -1.06528  -0.79188   0.03268   0.84562  -0.83008
  35  H 1   d 5     -0.00000   0.78246   0.00000   0.89757  -0.89757   1.77994
  36  H 1   d 1      1.81204   0.00000  -1.45625   0.94301   0.94301  -0.00000
  37  H 1   d 2      0.79224  -1.31082   0.89451  -0.95541  -0.03343  -0.93440
  38  H 1   d 3      0.73821   0.00000  -0.57856   1.76873   1.76873  -0.00000
  39  H 1   d 4      0.79224   1.31082   0.89451  -0.03343  -0.95541   0.93440
  40  H 1   d 5      0.00000  -0.71326  -0.00000  -1.03110   1.03110  -2.05691
  41  H 1   d 1     -0.03397  -0.00000   0.56828  -0.34612  -0.34612   0.00000
  42  H 1   d 2     -0.12675   0.49891  -0.30593   0.34715   0.00677   0.34306
  43  H 1   d 3     -0.11092  -0.00000   0.06308  -0.62751  -0.62751   0.00000
  44  H 1   d 4     -0.12675  -0.49891  -0.30593   0.00677   0.34715  -0.34306
  45  H 1   d 5     -0.00000   0.08353   0.00000   0.36249  -0.36249   0.72614
  46  H 2   d 1      0.44758   0.00000  -0.27790  -0.22937  -0.22937   0.00000
  47  H 2   d 2     -0.21062   0.26999  -0.21229  -0.23099  -0.01005   0.22760
  48  H 2   d 3      0.25635   0.00000  -0.22562  -0.41897  -0.41897   0.00000
  49  H 2   d 4     -0.21062  -0.26999  -0.21229  -0.01005  -0.23099  -0.22760
  50  H 2   d 5     -0.00000  -0.26222  -0.00000   0.24665  -0.24665  -0.48731
  51  H 2   d 1     -1.52212  -0.00000   1.13859   0.83737   0.83737  -0.00000
  52  H 2   d 2      0.64975  -1.06528   0.79188   0.84562   0.03268  -0.83008
  53  H 2   d 3     -0.86734  -0.00000   0.65571   1.53048   1.53048  -0.00000
  54  H 2   d 4      0.64975   1.06528   0.79188   0.03268   0.84562   0.83008
  55  H 2   d 5      0.00000   0.78246   0.00000  -0.89757   0.89757   1.77994
  56  H 2   d 1      1.81204   0.00000  -1.45625  -0.94301  -0.94301   0.00000
  57  H 2   d 2     -0.79224   1.31082  -0.89451  -0.95541  -0.03343   0.93440
  58  H 2   d 3      0.73821   0.00000  -0.57856  -1.76873  -1.76873   0.00000
  59  H 2   d 4     -0.79224  -1.31082  -0.89451  -0.03343  -0.95541  -0.93440
  60  H 2   d 5     -0.00000  -0.71326  -0.00000   1.03110  -1.03110  -2.05691
  61  H 2   d 1     -0.03397  -0.00000   0.56828   0.34612   0.34612  -0.00000
  62  H 2   d 2      0.12675  -0.49891   0.30593   0.34715   0.00677  -0.34306
  63  H 2   d 3     -0.11092  -0.00000   0.06308   0.62751   0.62751  -0.00000
  64  H 2   d 4      0.12675   0.49891   0.30593   0.00677   0.34715   0.34306
  65  H 2   d 5     -0.00000   0.08353   0.00000  -0.36249   0.36249   0.72614
  66  H 3   d 1      0.44758  -0.00000   0.27790   0.22937  -0.22937   0.00000
  67  H 3   d 2     -0.21062  -0.26999   0.21229   0.23099  -0.01005   0.22760
  68  H 3   d 3     -0.25635   0.00000  -0.22562  -0.41897   0.41897  -0.00000
  69  H 3   d 4      0.21062  -0.26999  -0.21229  -0.01005   0.23099   0.22760
  70  H 3   d 5      0.00000  -0.26222  -0.00000   0.24665   0.24665   0.48731
  71  H 3   d 1     -1.52212   0.00000  -1.13859  -0.83737   0.83737  -0.00000
  72  H 3   d 2      0.64975   1.06528  -0.79188  -0.84562   0.03268  -0.83008
  73  H 3   d 3      0.86734  -0.00000   0.65571   1.53048  -1.53048   0.00000
  74  H 3   d 4     -0.64975   1.06528   0.79188   0.03268  -0.84562  -0.83008
  75  H 3   d 5     -0.00000   0.78246   0.00000  -0.89757  -0.89757  -1.77994
  76  H 3   d 1      1.81204  -0.00000   1.45625   0.94301  -0.94301   0.00000
  77  H 3   d 2     -0.79224  -1.31082   0.89451   0.95541  -0.03343   0.93440
  78  H 3   d 3     -0.73821   0.00000  -0.57856  -1.76873   1.76873  -0.00000
  79  H 3   d 4      0.79224  -1.31082  -0.89451  -0.03343   0.95541   0.93440
  80  H 3   d 5      0.00000  -0.71326  -0.00000   1.03110   1.03110   2.05691
  81  H 3   d 1     -0.03397   0.00000  -0.56828  -0.34612   0.34612  -0.00000
  82  H 3   d 2      0.12675   0.49891  -0.30593  -0.34715   0.00677  -0.34306
  83  H 3   d 3      0.11092  -0.00000   0.06308   0.62751  -0.62751   0.00000
  84  H 3   d 4     -0.12675   0.49891   0.30593   0.00677  -0.34715  -0.34306
  85  H 3   d 5      0.00000   0.08353   0.00000  -0.36249  -0.36249  -0.72614
  86  H 4   d 1      0.44758  -0.00000   0.27790  -0.22937   0.22937  -0.00000
  87  H 4   d 2      0.21062   0.26999  -0.21229   0.23099  -0.01005  -0.22760
  88  H 4   d 3     -0.25635   0.00000  -0.22562   0.41897  -0.41897   0.00000
  89  H 4   d 4     -0.21062   0.26999   0.21229  -0.01005   0.23099  -0.22760
  90  H 4   d 5     -0.00000  -0.26222  -0.00000  -0.24665  -0.24665   0.48731
  91  H 4   d 1     -1.52212   0.00000  -1.13859   0.83737  -0.83737   0.00000
  92  H 4   d 2     -0.64975  -1.06528   0.79188  -0.84562   0.03268   0.83008
  93  H 4   d 3      0.86734  -0.00000   0.65571  -1.53048   1.53048  -0.00000
  94  H 4   d 4      0.64975  -1.06528  -0.79188   0.03268  -0.84562   0.83008
  95  H 4   d 5      0.00000   0.78246   0.00000   0.89757   0.89757  -1.77994
  96  H 4   d 1      1.81204  -0.00000   1.45625  -0.94301   0.94301  -0.00000
  97  H 4   d 2      0.79224   1.31082  -0.89451   0.95541  -0.03343  -0.93440
  98  H 4   d 3     -0.73821   0.00000  -0.57856   1.76873  -1.76873   0.00000
  99  H 4   d 4     -0.79224   1.31082   0.89451  -0.03343   0.95541  -0.93440
 100  H 4   d 5     -0.00000  -0.71326  -0.00000  -1.03110  -1.03110   2.05691
 101  H 4   d 1     -0.03397   0.00000  -0.56828   0.34612  -0.34612   0.00000
 102  H 4   d 2     -0.12675  -0.49891   0.30593  -0.34715   0.00677   0.34306
 103  H 4   d 3      0.11092  -0.00000   0.06308  -0.62751   0.62751  -0.00000
 104  H 4   d 4      0.12675  -0.49891  -0.30593   0.00677  -0.34715   0.34306
 105  H 4   d 5      0.00000   0.08353   0.00000   0.36249   0.36249  -0.72614
                        49        50        51        52        53        54
 eigenvalues:          1.209     1.271     1.273     1.675     1.683     1.683
   1  C     d 1     -0.00000   0.00000  -0.00000  -0.01249  -0.00000   0.00000
   2  C     d 2     -0.00000  -0.00000   0.00000   0.00000  -0.01310   0.00000
   3  C     d 3      0.00055   0.00665  -0.00000   0.00000   0.00000  -0.00000
   4  C     d 4      0.00000   0.00000   0.00000  -0.00000  -0.00000  -0.01310
   5  C     d 5     -0.00000   0.00000   0.00677   0.00000  -0.00000  -0.00000
   6  C     d 1     -0.00000  -0.00000  -0.00000  -0.04189  -0.00000   0.00000
   7  C     d 2      0.00000   0.00000  -0.00000   0.00000  -0.04223   0.00000
   8  C     d 3      0.00239  -0.08349   0.00000   0.00000   0.00000  -0.00000
   9  C     d 4     -0.00000  -0.00000  -0.00000  -0.00000   0.00000  -0.04223
  10  C     d 5     -0.00000  -0.00000  -0.08409   0.00000  -0.00000  -0.00000
  11  C     d 1     -0.00000  -0.00000  -0.00000  -1.81474  -0.00000   0.00000
  12  C     d 2     -0.00000  -0.00000   0.00000   0.00000  -1.90582   0.00000
  13  C     d 3      0.08354   1.77861  -0.00000   0.00000   0.00000  -0.00000
  14  C     d 4      0.00000   0.00000   0.00000  -0.00000  -0.00000  -1.90582
  15  C     d 5     -0.00000   0.00000   1.80710   0.00000  -0.00000  -0.00000
  16  C     d 1      0.00000   0.00000   0.00000   2.86701   0.00000  -0.00000
  17  C     d 2      0.00000   0.00000  -0.00000  -0.00000   3.00647  -0.00000
[...]
    71    4.217073702830e-02
    72   -1.980522361069e+00
    73    2.085484906160e+00
    74   -9.122200388226e-02
    75   -1.935186091953e+00
    76    7.360585128252e-03
    77    1.098661811839e+00
    78   -1.194234039404e+00
    79   -1.512563266179e-03
    80    1.072815287339e+00
    81   -9.381043489272e-03
    82   -6.569125977857e-02
    83    1.431016103621e-01
    84    1.422207649958e-02
    85   -6.330731016375e-02
    86    5.957275779098e-02
    87    1.036896252431e+00
    88   -1.097896098248e+00
    89   -1.127620351395e-01
    90   -1.013466990725e+00
    91   -4.217074539464e-02
    92   -1.980522056580e+00
    93    2.085484598490e+00
    94    9.122199672488e-02
    95    1.935185780074e+00
    96   -7.360589972077e-03
    97    1.098661643307e+00
    98   -1.194233868889e+00
    99    1.512567784435e-03
   100   -1.072815108831e+00
   101    9.381046283438e-03
   102   -6.569124982825e-02
   103    1.431016001463e-01
   104   -1.422207669205e-02
   105    6.330728806963e-02
Sym=X
Ene= 5.416042
Spin=Alpha
Occup=0
     1    2.538971848647e-12
     2   -7.396837710363e-11
     3    3.189219964552e-10
     4   -9.284526174613e-14
     5    4.374787609587e-03
     6    1.781578409405e-10
     7   -2.664202242091e-08
     8    1.148072896216e-07
     9   -5.989644482177e-12
    10    1.468630091388e+00
    11   -6.308645985437e-10
    12    7.368425464562e-08
    13   -3.175256404521e-07
    14    1.841521719115e-11
    15   -4.077876731102e+00
    16    7.407165076613e-10
    17   -8.595418325461e-08
    18    3.704000963407e-07
    19   -2.085880441053e-11
    20    4.761946669462e+00
    21   -2.787603225508e-10
    22    2.991055319722e-08
    23   -1.288933295743e-07
    24    7.673276598067e-12
    25   -1.662244258493e+00
    26    1.126351128966e-01
    27   -1.017325314883e+00
    28   -1.017325322545e+00
    29    1.073536802539e-08
    30   -1.064128276477e+00
    31   -7.643722071833e-02
    32    1.939990044437e+00
    33    1.939990057777e+00
    34   -8.346517759584e-09
    35    2.020789524028e+00
    36   -1.714464915597e-02
    37   -1.074427643172e+00
    38   -1.074427654157e+00
    39   -5.072084317128e-10
    40   -1.156333899277e+00
    41    1.762675645324e-02
    42    6.368464779129e-02
    43    6.368465539485e-02
    44    1.457119388674e-09
    45    1.422220772088e-01
    46    1.126351207006e-01
    47    1.017325194148e+00
    48    1.017325186544e+00
    49   -1.100834486986e-08
    50   -1.064128154469e+00
    51   -7.643722713448e-02
    52   -1.939989813303e+00
    53   -1.939989800078e+00
    54    8.987072849488e-09
    55    2.020789291046e+00
    56   -1.714464921253e-02
    57    1.074427516305e+00
    58    1.074427505409e+00
    59    7.043130912290e-11
    60   -1.156333770086e+00
    61    1.762675747933e-02
    62   -6.368464284281e-02
    63   -6.368463529847e-02
    64   -1.368493668227e-09
    65    1.422220695586e-01
    66   -1.126351226727e-01
    67   -1.017325154083e+00
    68    1.017325149381e+00
    69    6.891981830397e-09
    70   -1.064128117398e+00
    71    7.643722823355e-02
    72    1.939989737250e+00
    73   -1.939989729081e+00
    74   -5.679254533016e-09
    75    2.020789220208e+00
    76    1.714464976498e-02
    77   -1.074427472780e+00
    78    1.074427466036e+00
    79    1.193621906415e-11
    80   -1.156333730773e+00
    81   -1.762675779398e-02
    82    6.368463765218e-02
    83   -6.368463296385e-02
    84    8.371544800603e-10
    85    1.422220672106e-01
    86   -1.126351101546e-01
    87    1.017325355281e+00
    88   -1.017325360087e+00
    89   -6.655826074249e-09
    90   -1.064128313149e+00
    91    7.643721794599e-02
    92   -1.939990121118e+00
    93    1.939990129490e+00
    94    5.114924676704e-09
    95    2.020789594007e+00
    96    1.714464967010e-02
    97    1.074427687062e+00
    98   -1.074427693946e+00
    99    3.776270248084e-10
   100   -1.156333938049e+00
   101   -1.762675614732e-02
   102   -6.368465302231e-02
   103    6.368465777508e-02
   104   -9.244592906472e-10
   105    1.422220794846e-01
Sym=X
Ene= 18.196434
Spin=Alpha
Occup=0
     1    1.253723967586e+00
     2   -5.283736513496e-08
     3    1.230277624993e-08
     4    1.575641041264e-09
     5    1.488027872853e-10
     6   -1.093852124669e+00
     7    4.680224796879e-08
     8   -1.089754087130e-08
     9   -1.373611887300e-09
    10   -1.321275334127e-10
    11    2.485983870363e+00
    12   -8.625786089729e-08
    13    2.008463304360e-08
    14    3.112562993246e-09
    15    2.430017937737e-10
    16   -2.921171306969e+00
    17    9.782033203586e-08
    18   -2.277699907052e-08
    19   -3.652495983627e-09
    20   -2.753001159914e-10
    21    1.104262881157e+00
    22   -3.485196342930e-08
    23    8.115214606395e-09
    24    1.377875133619e-09
    25    9.795957664999e-11
    26   -1.593373272114e-01
    27   -2.665447774255e-02
    28   -2.665447892604e-02
    29    7.407419246166e-10
    30    5.396203340768e-02
    31    4.932647547008e-01
    32    1.118165750239e-01
    33    1.118165784091e-01
    34   -4.255307761524e-09
    35   -2.245235888509e-01
    36   -3.785623338379e-01
    37   -9.436685149116e-02
    38   -9.436685349264e-02
    39    3.566279133353e-09
    40    1.891277115104e-01
    41   -2.852887358875e-02
    42    2.469502267597e-02
    43    2.469502048981e-02
    44   -6.616523349494e-10
    45   -4.939587426266e-02
    46   -1.593373278906e-01
    47    2.665446947052e-02
    48    2.665446805340e-02
    49   -1.145787129081e-09
    50    5.396204374937e-02
    51    4.932647582000e-01
    52   -1.118165619146e-01
    53   -1.118165575555e-01
    54    5.504558776731e-09
    55   -2.245236081698e-01
    56   -3.785623367358e-01
    57    9.436684534809e-02
    58    9.436684252574e-02
    59   -4.523308637985e-09
    60    1.891277215311e-01
    61   -2.852887314167e-02
    62   -2.469501879683e-02
    63   -2.469502076709e-02
    64    5.924913511563e-10
    65   -4.939587477170e-02
    66   -1.593373281018e-01
    67    2.665446635913e-02
    68   -2.665446543331e-02
    69   -7.896193987116e-10
    70   -5.396204685565e-02
    71    4.932647592879e-01
    72   -1.118165561027e-01
    73    1.118165532065e-01
    74    3.661592720817e-09
    75    2.245236139795e-01
    76   -3.785623376367e-01
    77    9.436684233407e-02
    78   -9.436684042298e-02
    79   -2.995681893000e-09
    80   -1.891277245466e-01
    81   -2.852887300270e-02
    82   -2.469501864462e-02
    83    2.469501982985e-02
    84    3.556462684844e-10
    85    4.939587491492e-02
    86   -1.593373270099e-01
    87   -2.665448093199e-02
    88    2.665448162409e-02
    89    3.845568751878e-10
    90   -5.396203023567e-02
    91    4.932647536640e-01
    92    1.118165809804e-01
    93   -1.118165829025e-01
    94   -2.412267793186e-09
    95    2.245235829321e-01
    96   -3.785623329793e-01
    97   -9.436685457974e-02
    98    9.436685566984e-02
    99    2.038585883448e-09
   100   -1.891277084421e-01
   101   -2.852887372116e-02
   102    2.469502283185e-02
   103   -2.469502143071e-02
   104   -4.247866599291e-10
   105    4.939587409678e-02
Sym=X
Ene= 18.198722
Spin=Alpha
Occup=0
     1    5.279045390555e-08
     2    1.254831635839e+00
     3   -7.266409696172e-13
     4   -6.712667042901e-08
     5    1.041102942258e-08
     6   -4.606294146782e-08
     7   -1.111598382010e+00
     8    3.936850845321e-13
     9    5.857226540072e-08
    10   -9.220935691302e-09
    11    1.046783190834e-07
    12    2.048889368047e+00
    13   -1.634470336853e-12
    14   -1.331140561018e-07
    15    1.699711113908e-08
    16   -1.230012417436e-07
    17   -2.323510145872e+00
    18    2.292166456641e-12
    19    1.564143207283e-07
    20   -1.927647096449e-08
    21    4.649723063138e-08
    22    8.278228323693e-01
    23   -9.592049377005e-13
    24   -5.912428331605e-08
    25    6.868738376364e-09
    26   -1.057259686389e-02
    27    1.354602017219e-01
    28    1.603702477297e-01
    29   -1.831882084804e-02
    30    1.601387265486e-01
    31    5.438046325096e-02
    32   -2.251959645640e-01
    33   -2.995510365387e-01
    34    9.421935413041e-02
    35   -2.992068614692e-01
    36   -4.502231585409e-02
    37    1.089705130690e-01
    38    1.553573507208e-01
    39   -7.801100382691e-02
    40    1.552016626047e-01
    41    6.958659273774e-03
    42   -4.788587394148e-02
    43   -7.876601722535e-03
    44    1.206480388636e-02
    45   -7.864048640000e-03
    46    1.057258380581e-02
    47    1.354601963041e-01
    48    1.603702523432e-01
    49    1.831883786130e-02
    50   -1.601387197810e-01
    51   -5.438042353587e-02
    52   -2.251959481639e-01
    53   -2.995510618513e-01
    54   -9.421940686689e-02
    55    2.992068388565e-01
    56    4.502228548040e-02
    57    1.089705008750e-01
    58    1.553573736527e-01
    59    7.801104432095e-02
    60   -1.552016448833e-01
    61   -6.958661908230e-03
    62   -4.788587130664e-02
    63   -7.876608253624e-03
    64   -1.206480083071e-02
    65    7.864043685577e-03
    66    1.057258344538e-02
    67    1.354601989572e-01
    68   -1.603702549921e-01
    69    1.831883785674e-02
    70    1.601387220113e-01
    71   -5.438042171687e-02
    72   -2.251959531220e-01
    73    2.995510667986e-01
    74   -9.421940685518e-02
    75   -2.992068425649e-01
    76    4.502228397939e-02
    77    1.089705034468e-01
    78   -1.553573762176e-01
    79    7.801104431323e-02
    80    1.552016466772e-01
    81   -6.958661676928e-03
    82   -4.788587143683e-02
    83    7.876608383700e-03
    84   -1.206480082987e-02
    85   -7.864044479806e-03
    86   -1.057259722344e-02
    87    1.354601990698e-01
    88   -1.603702450788e-01
    89   -1.831882085190e-02
    90   -1.601387243166e-01
    91    5.438046506749e-02
    92   -2.251959596098e-01
    93    2.995510315887e-01
    94    9.421935413987e-02
    95    2.992068577575e-01
    96   -4.502231735344e-02
    97    1.089705105000e-01
    98   -1.553573481547e-01
    99   -7.801100383298e-02
   100   -1.552016608088e-01
   101    6.958659504995e-03
   102   -4.788587381160e-02
   103    7.876601592642e-03
   104    1.206480388701e-02
   105    7.864047845645e-03
Sym=X
Ene= 18.198722
Spin=Alpha
Occup=0
     1   -1.229185161302e-08
     2    7.300271498423e-13
     3    1.254831635839e+00
     4   -1.553375200888e-08
     5   -4.494182536142e-08
     6    1.072539339181e-08
     7   -9.180434190625e-13
     8   -1.111598382009e+00
     9    1.355420844467e-08
    10    3.980440404460e-08
    11   -2.437351818404e-08
    12    6.520339823624e-13
    13    2.048889368038e+00
    14   -3.080418609760e-08
    15   -7.337239082656e-08
    16    2.863987746162e-08
    17   -1.812994199213e-13
    18   -2.323510145855e+00
    19    3.619622240930e-08
    20    8.321204441336e-08
    21   -1.082651892012e-08
    22   -1.874334021323e-13
    23    8.278228323579e-01
    24   -1.368211848459e-08
    25   -2.965096508661e-08
    26   -1.057258954816e-02
    27    1.603702451618e-01
    28    1.354601929687e-01
    29    1.831883133501e-02
    30    1.601387178266e-01
    31    5.438044247815e-02
    32   -2.995510420290e-01
    33   -2.251959443466e-01
    34   -9.421938663398e-02
    35   -2.992068399681e-01
    36   -4.502230019167e-02
    37    1.553573596093e-01
    38    1.089705003139e-01
    39    7.801102878291e-02
    40    1.552016480248e-01
    41    6.958661368466e-03
    42   -7.876605478964e-03
    43   -4.788587205330e-02
    44   -1.206480200865e-02
    45   -7.864043965900e-03
    46    1.057259111847e-02
    47    1.603702549156e-01
    48    1.354602050566e-01
    49   -1.831882738146e-02
    50   -1.601387285127e-01
    51   -5.438044430207e-02
    52   -2.995510563719e-01
    53   -2.251959683776e-01
    54    9.421937438843e-02
    55    2.992068603810e-01
    56    4.502230113746e-02
    57    1.553573647702e-01
    58    1.089705136265e-01
    59   -7.801101938500e-02
    60   -1.552016594788e-01
    61   -6.958659810627e-03
    62   -7.876604495367e-03
    63   -4.788587319150e-02
    64    1.206480271298e-02
    65    7.864048363204e-03
    66   -1.057258799413e-02
    67   -1.603702565980e-01
    68    1.354602044198e-01
    69    1.831883131767e-02
    70   -1.601387274550e-01
    71    5.438043463112e-02
    72    2.995510633855e-01
    73   -2.251959657435e-01
    74   -9.421938659002e-02
    75    2.992068559771e-01
    76   -4.502229371566e-02
    77   -1.553573706806e-01
    78    1.089705114115e-01
    79    7.801102875435e-02
    80   -1.552016557689e-01
    81    6.958660370259e-03
    82    7.876606039814e-03
    83   -4.788587261493e-02
    84   -1.206480200575e-02
    85    7.864047394425e-03
    86    1.057259267220e-02
    87   -1.603702434758e-01
    88    1.354601936055e-01
    89   -1.831882739908e-02
    90    1.601387188814e-01
    91   -5.438045214792e-02
    92    2.995510350092e-01
    93   -2.251959469828e-01
    94    9.421937443269e-02
    95   -2.992068443665e-01
    96    4.502230761271e-02
    97   -1.553573536955e-01
    98    1.089705025308e-01
    99   -7.801101941368e-02
   100    1.552016517315e-01
   101   -6.958660808939e-03
   102    7.876603934429e-03
   103   -4.788587263019e-02
   104    1.206480271596e-02
   105   -7.864044934407e-03
Sym=X
Ene= 18.201851
Spin=Alpha
Occup=0
     1   -1.575696686837e-09
     2    6.718586773506e-08
     3    1.554744644284e-08
     4    1.253717516276e+00
     5   -1.112252606546e-11
     6    1.376185404276e-09
     7   -5.952422393945e-08
     8   -1.377444547193e-08
     9   -1.094086459858e+00
    10    9.846642745072e-12
    11   -3.136672060452e-09
    12    1.097277618960e-07
    13    2.539200952463e-08
    14    2.486210780048e+00
    15   -1.801133793554e-11
    16    3.690743291270e-09
    17   -1.244333973334e-07
    18   -2.879499071510e-08
    19   -2.921339927230e+00
    20    2.034606205588e-11
    21   -1.398149455978e-09
    22    4.433250072118e-08
    23    1.025890081146e-08
    24    1.104263576538e+00
    25   -7.181245264791e-12
    26   -5.071775363729e-10
    27   -4.678385788421e-02
    28    4.678387743048e-02
    29   -1.588209499441e-01
    30    1.047130306843e-08
    31    2.982336685395e-09
    32    1.945927750582e-01
    33   -1.945928098909e-01
    34    4.922423339015e-01
    35   -1.941116364036e-08
    36   -2.500895871768e-09
    37   -1.638810563112e-01
    38    1.638810739497e-01
    39   -3.779681239866e-01
    40    9.978320125506e-09
    41    4.952460648880e-10
    42    4.278594203284e-02
    43   -4.278594577010e-02
    44   -2.855391364611e-02
    45   -4.570161543042e-10
    46    9.023248238935e-10
    47    4.678387633931e-02
    48   -4.678385691394e-02
    49   -1.588209484214e-01
    50   -1.061396043106e-08
    51   -4.210468060808e-09
    52   -1.945928065485e-01
    53    1.945927722529e-01
    54    4.922423261168e-01
    55    1.998940544151e-08
    56    3.445458577665e-09
    57    1.638810718008e-01
    58   -1.638810546231e-01
    59   -3.779681175483e-01
    60   -1.046153185728e-08
    61   -4.206997034268e-10
    62   -4.278594735477e-02
    63    4.278594374085e-02
    64   -2.855391464044e-02
    65    5.813727235629e-10
    66    6.378827219681e-10
    67    4.678387236410e-02
    68    4.678386026749e-02
    69   -1.588209479629e-01
    70    6.648877408082e-09
    71   -2.860871827835e-09
    72   -1.945927991219e-01
    73   -1.945927778263e-01
    74    4.922423237725e-01
    75   -1.258047461963e-08
    76    2.329744897324e-09
    77    1.638810679489e-01
    78    1.638810573186e-01
    79   -3.779681156094e-01
    80    6.617992765103e-09
    81   -2.488819635552e-10
    82   -4.278594715964e-02
    83   -4.278594492733e-02
    84   -2.855391493996e-02
    85   -3.853527654415e-10
    86   -2.420917292965e-10
    87   -4.678386185257e-02
    88   -4.678387408102e-02
    89   -1.588209504036e-01
    90   -6.511613220720e-09
    91    1.629115517713e-09
    92    1.945927824716e-01
    93    1.945928043245e-01
    94    4.922423362474e-01
    95    1.201161029956e-08
    96   -1.382126968276e-09
    97   -1.638810601561e-01
    98   -1.638810712576e-01
    99   -3.779681259263e-01
   100   -6.139629068862e-09
   101    3.229421592728e-10
   102    4.278594222764e-02
   103    4.278594458378e-02
   104   -2.855391334660e-02
   105    2.627126115220e-10
Sym=X
Ene= 18.206565
Spin=Alpha
Occup=0
     1   -1.486732670230e-10
     2   -1.041102860197e-08
     3    4.494183136731e-08
     4    1.111776557698e-11
     5    1.254818230323e+00
     6    1.295073418257e-10
     7    9.229691029208e-09
     8   -3.984237523991e-08
     9   -9.713961265352e-12
    10   -1.112222047309e+00
    11   -2.939708128651e-10
    12   -1.701464188741e-08
    13    7.344777754477e-08
    14    2.222992837131e-11
    15    2.050504858080e+00
    16    3.458027599484e-10
    17    1.929241711211e-08
    18   -8.328011123741e-08
    19   -2.622930005959e-11
    20   -2.325147100340e+00
    21   -1.309256566416e-10
    22   -6.871794706188e-09
    23    2.966345919335e-08
    24    9.978530050993e-12
    25    8.283054915439e-01
    26    2.148783566189e-02
    27    1.600778541273e-01
    28    1.600778530424e-01
    29    8.081651562753e-10
    30    1.350869209930e-01
    31   -1.091964012742e-01
    32   -2.989182851978e-01
    33   -2.989182819397e-01
    34   -4.163561643045e-09
    35   -2.245524787178e-01
    36    9.023140665963e-02
    37    1.549865478936e-01
    38    1.549865458590e-01
    39    3.448989174673e-09
    40    1.086330502455e-01
    41   -1.392545359098e-02
    42   -7.846217956514e-03
    43   -7.846219725320e-03
    44   -5.355797406411e-10
    45   -4.789075446159e-02
    46    2.148783622664e-02
    47   -1.600778448679e-01
    48   -1.600778459597e-01
    49   -8.034532523742e-10
    50    1.350869121677e-01
    51   -1.091964042278e-01
    52    2.989182674388e-01
    53    2.989182707171e-01
    54    4.150878542071e-09
    55   -2.245524622392e-01
    56    9.023140911330e-02
    57   -1.549865385508e-01
    58   -1.549865406016e-01
    59   -3.438913040268e-09
    60    1.086330417007e-01
    61   -1.392545397167e-02
    62    7.846218186109e-03
    63    7.846216424364e-03
    64    5.299521953653e-10
    65   -4.789075402848e-02
    66   -2.148783635956e-02
    67    1.600778426039e-01
    68   -1.600778432855e-01
    69    4.977202675766e-10
    70    1.350869095192e-01
    71    1.091964050027e-01
    72   -2.989182636624e-01
    73    2.989182657061e-01
    74   -2.578741135143e-09
    75   -2.245524573229e-01
    76   -9.023140976414e-02
    77    1.549865367152e-01
    78   -1.549865379928e-01
    79    2.136924221745e-09
    80    1.086330391684e-01
    81    1.392545409320e-02
    82   -7.846217385977e-03
    83    7.846216286920e-03
    84   -3.300708171658e-10
    85   -4.789075390958e-02
    86   -2.148783545426e-02
    87   -1.600778563801e-01
    88    1.600778557033e-01
    89   -5.075724512177e-10
    90    1.350869236669e-01
    91    1.091964002680e-01
    92    2.989182889277e-01
    93   -2.989182868928e-01
    94    2.607918365866e-09
    95   -2.245524837398e-01
    96   -9.023140583098e-02
    97   -1.549865496899e-01
    98    1.549865484184e-01
    99   -2.159850357956e-09
   100    1.086330528670e-01
   101    1.392545348309e-02
   102    7.846218746337e-03
   103   -7.846219849597e-03
   104    3.345811300167e-10
   105   -4.789075460405e-02
[5D]

======= END OF MOLDEN-FORMATTED INPUT FILE =======


        *************************************************************
        *                                                           *
        *  Thank you very much for using Q-Chem.  Have a nice day.  *
        *                                                           *
        *************************************************************


0 sent ACK to 0 
now end server 0 ... 
