[Molden Format]
[Atoms] (AU)
N    1    7         0.982657589101       0.996830535097       0.968484643104
N    2    7        -0.982657589101      -0.987381904433       0.987381904433
N    3    7        -0.982657589101       0.977933273768      -0.977933273768
N    4    7         0.982657589101      -0.987381904433      -0.977933273768
[GTO]
  1 0
 s    5  1.00
     1712.8415853000        -0.0053934100
      257.6481267700        -0.0402215800
       58.4582458500        -0.1793114500
       16.1983679100        -0.4637631800
        5.0052600800        -0.4417142300
 s    1  1.00
        0.5873185700         1.0000000000
 s    1  1.00
        0.1876459200         1.0000000000
 p    3  1.00
       13.5714702300        -0.0400724000
        2.9257372900        -0.2180704500
        0.7992775100        -0.5129446600
 p    1  1.00
        0.2195434800         1.0000000000
 d    1  1.00
        1.0000000000         1.0000000000

  2 0
 s    5  1.00
     1712.8415853000        -0.0053934100
      257.6481267700        -0.0402215800
       58.4582458500        -0.1793114500
       16.1983679100        -0.4637631800
        5.0052600800        -0.4417142300
 s    1  1.00
        0.5873185700         1.0000000000
 s    1  1.00
        0.1876459200         1.0000000000
 p    3  1.00
       13.5714702300        -0.0400724000
        2.9257372900        -0.2180704500
        0.7992775100        -0.5129446600
 p    1  1.00
        0.2195434800         1.0000000000
 d    1  1.00
        1.0000000000         1.0000000000

  3 0
 s    5  1.00
     1712.8415853000        -0.0053934100
      257.6481267700        -0.0402215800
       58.4582458500        -0.1793114500
       16.1983679100        -0.4637631800
        5.0052600800        -0.4417142300
 s    1  1.00
        0.5873185700         1.0000000000
 s    1  1.00
        0.1876459200         1.0000000000
 p    3  1.00
       13.5714702300        -0.0400724000
        2.9257372900        -0.2180704500
        0.7992775100        -0.5129446600
 p    1  1.00
        0.2195434800         1.0000000000
 d    1  1.00
        1.0000000000         1.0000000000

  4 0
 s    5  1.00
     1712.8415853000        -0.0053934100
      257.6481267700        -0.0402215800
       58.4582458500        -0.1793114500
       16.1983679100        -0.4637631800
        5.0052600800        -0.4417142300
 s    1  1.00
        0.5873185700         1.0000000000
 s    1  1.00
        0.1876459200         1.0000000000
 p    3  1.00
       13.5714702300        -0.0400724000
        2.9257372900        -0.2180704500
        0.7992775100        -0.5129446600
 p    1  1.00
        0.2195434800         1.0000000000
 d    1  1.00
        1.0000000000         1.0000000000

[5D]
[9G]

[MO]
 Sym= A
 Ene=       -16.1586225800
 Spin= Alpha
 Occup=  1.0000
  1       0.002617948621
  2      -0.000155917478
  3      -0.003937219213
  4       0.000037164352
  5       0.000036436731
  6      -0.000112385908
  7       0.001346047933
  8       0.001371791269
  9      -0.000929406506
 10      -0.000390005482
 11       0.000090750214
 12       0.000089649158
 13      -0.000004907167
 14       0.000656391229
 15       0.990554317166
 16      -0.034448997990
 17       0.021171932433
 18       0.001084784823
 19       0.001005904664
 20      -0.001099696082
 21       0.003842908751
 22       0.003823724602
 23      -0.003876371724
 24      -0.000009688959
 25       0.000134726553
 26       0.000126813670
 27       0.000002970525
 28      -0.000122664145
 29       0.002703530252
 30      -0.000177730413
 31      -0.003874212470
 32       0.000115668332
 33       0.000048321167
 34      -0.000049049450
 35       0.000960637101
 36       0.001355151525
 37      -0.001322171709
 38       0.000200440627
 39       0.000099595375
 40      -0.000675792608
 41      -0.000343172436
 42      -0.000095226552
 43       0.002578280982
 44      -0.000178953268
 45      -0.003856382566
 46       0.000050858311
 47       0.000117270003
 48      -0.000051636264
 49       0.001340870528
 50       0.000980110727
 51      -0.001330480717
 52       0.000199311817
 53      -0.000682649017
 54       0.000099759098
 55       0.000345743144
 56      -0.000097228235
 Sym= A
 Ene=       -16.0969442956
 Spin= Alpha
 Occup=  1.0000
  1       0.924248454021
  2      -0.030397197243
  3       0.017858558917
  4      -0.002250595051
  5      -0.002311631537
  6      -0.002023418375
  7      -0.003729019005
  8      -0.004447054512
  9      -0.003431859253
 10      -0.000042673559
 11       0.000094370331
 12      -0.000094662489
 13       0.000105301381
 14       0.000115647857
 15      -0.003370551997
 16      -0.000314103765
 17      -0.005515223712
 18       0.000051225091
 19       0.000011483936
 20      -0.000116700251
 21      -0.001005485660
 22      -0.001722559712
 23      -0.000294770790
 24      -0.000298939272
 25      -0.000189140078
 26      -0.000376275998
 27      -0.000113861516
 28       0.000721404426
 29       0.352468270037
 30      -0.011903680626
 31       0.003667148950
 32       0.000759845313
 33      -0.000984047744
 34       0.000854247676
 35       0.000271242457
 36      -0.002456903048
 37       0.000481822269
 38       0.000189671694
 39       0.000668014746
 40      -0.000114754926
 41       0.000325132782
 42      -0.000071305083
 43       0.064477909009
 44      -0.002517702488
 45      -0.003696168274
 46      -0.000276064322
 47       0.000123069894
 48       0.000193561871
 49      -0.000717448019
 50      -0.001438377329
 51      -0.000565318492
 52       0.000035175006
 53      -0.000132569618
 54       0.000730312455
 55      -0.000355955725
 56      -0.000350067639
 Sym= A
 Ene=       -16.0963400767
 Spin= Alpha
 Occup=  1.0000
  1       0.354970260638
  2      -0.011297959143
  3       0.011270636077
  4      -0.000883319700
  5      -0.000743605762
  6      -0.000811682246
  7      -0.002792885918
  8      -0.000731731293
  9      -0.002779376865
 10      -0.000267519172
 11      -0.000805519009
 12      -0.000200385425
 13      -0.000346361299
 14      -0.000074831620
 15       0.001582156769
 16       0.000151378631
 17       0.002476619925
 18      -0.000121592432
 19       0.000004112040
 20      -0.000055257442
 21      -0.001347372018
 22       0.000752300557
 23      -0.001635822041
 24      -0.000361630144
 25       0.000084998541
 26       0.000669496373
 27       0.000334095476
 28       0.000163465087
 29      -0.924793520544
 30       0.030230801604
 31      -0.020890108271
 32      -0.002078787721
 33       0.002202174687
 34      -0.002290351606
 35      -0.004485637749
 36       0.003742646422
 37      -0.004666789382
 38       0.000032849545
 39       0.000461183687
 40       0.000025560239
 41       0.000253998947
 42      -0.000184068589
 43      -0.034307446048
 44       0.001299642532
 45       0.001583191390
 46       0.000026224955
 47      -0.000068058515
 48      -0.000209374219
 49      -0.001434168645
 50       0.000612684157
 51      -0.001500937306
 52       0.000474425737
 53       0.000058635513
 54       0.000184418337
 55      -0.000134184769
 56       0.000662437166
 Sym= A
 Ene=       -16.0932445465
 Spin= Alpha
 Occup=  1.0000
  1       0.047842770314
  2      -0.001262591984
  3       0.004672449229
  4       0.000016127615
  5      -0.000134410132
  6      -0.000120192854
  7       0.000823511388
  8      -0.001590769994
  9      -0.001409525215
 10      -0.000206200387
 11      -0.000069836633
 12      -0.000760160864
 13       0.000398105329
 14      -0.000088213332
 15       0.002161448229
 16       0.000222916357
 17       0.003574032560
 18       0.000016911715
 19      -0.000134031526
 20      -0.000015185495
 21       0.001331549456
 22      -0.001119423309
 23      -0.001298071500
 24      -0.000225164825
 25       0.000743202445
 26       0.000056809925
 27      -0.000393288236
 28      -0.000061204197
 29       0.054962217702
 30      -0.001496376058
 31       0.004851471241
 32       0.000136453976
 33      -0.000150326905
 34       0.000003830480
 35       0.001459772836
 36      -0.001599774137
 37      -0.000777823579
 38       0.000446844176
 39      -0.000076796758
 40       0.000090264763
 41       0.000002775204
 42       0.000761159155
 43      -0.988550898840
 44       0.032256381074
 45      -0.021208752323
 46       0.002393964894
 47      -0.002200871610
 48      -0.002390805648
 49       0.004437929315
 50      -0.004437589419
 51      -0.004410840896
 52      -0.000075906072
 53       0.000044673981
 54       0.000238698215
 55      -0.000124709174
 56      -0.000244885856
 Sym= A
 Ene=        -2.0106125286
 Spin= Alpha
 Occup=  1.0000
  1       0.127104185164
  2       0.259805551054
  3       0.061634690804
  4       0.077709082236
  5       0.077967540399
  6       0.079041547209
  7      -0.021449424111
  8      -0.021729121830
  9      -0.022068579135
 10       0.001147280752
 11       0.013745644685
 12       0.013796128467
 13      -0.000142045169
 14       0.012855112500
 15       0.145539456150
 16       0.307520327863
 17       0.073673046994
 18      -0.074146969745
 19      -0.073344801739
 20       0.075261676481
 21       0.019969547995
 22       0.019588924721
 23      -0.020126677482
 24       0.000066346391
 25      -0.013385681705
 26      -0.013374181649
 27      -0.000157047394
 28       0.013235895282
 29       0.128031016388
 30       0.261607834342
 31       0.062801141605
 32      -0.080168824644
 33       0.077662901542
 34      -0.078409891864
 35       0.022695711085
 36      -0.021714953033
 37       0.021886919371
 38      -0.000714796112
 39       0.013918102058
 40      -0.012822841002
 41       0.001271372322
 42      -0.013739391292
 43       0.126195791207
 44       0.257353423784
 45       0.060789580768
 46       0.077361597768
 47      -0.079137796749
 48      -0.076868436591
 49      -0.021281455754
 50       0.022060680570
 51       0.021307997648
 52      -0.000795894239
 53      -0.012741121939
 54       0.013826434412
 55      -0.001185553948
 56      -0.013868840459
 Sym= A
 Ene=        -1.4444050830
 Spin= Alpha
 Occup=  1.0000
  1       0.082668821353
  2       0.176853215800
  3       0.134259334129
  4      -0.025695700735
  5      -0.033704833840
  6       0.136732101401
  7      -0.016795846848
  8      -0.015792747739
  9      -0.046771109839
 10       0.019426858298
 11       0.012105481759
 12       0.011320057961
 13       0.000746376641
 14      -0.010315328245
 15      -0.261841215060
 16      -0.596295382596
 17      -0.425169376498
 18      -0.070940132634
 19      -0.085493753149
 20       0.065270465632
 21      -0.022836504930
 22      -0.018677473837
 23       0.024855463360
 24      -0.000608014805
 25       0.005115940873
 26       0.004421467349
 27      -0.000170166109
 28      -0.003965892679
 29       0.075567380250
 30       0.161464180941
 31       0.124130497145
 32      -0.138217006272
 33      -0.039970460779
 34       0.027258416156
 35       0.045826718635
 36      -0.012967272996
 37       0.015203673771
 38      -0.009072113602
 39       0.012139864754
 40       0.010877942394
 41       0.017872990620
 42      -0.010578133114
 43       0.064405183931
 44       0.137241197385
 45       0.105163705297
 46      -0.037447797920
 47      -0.137638063901
 48       0.033859945910
 49      -0.010759782769
 50       0.042208627126
 51       0.011401564474
 52      -0.009783961673
 53       0.011156688591
 54       0.011527623174
 55      -0.017590787328
 56      -0.011101786757
 Sym= A
 Ene=        -1.3737483754
 Spin= Alpha
 Occup=  1.0000
  1       0.059495564814
  2       0.129209658608
  3       0.108039392935
  4       0.149051928829
  5      -0.120100440683
  6      -0.019827782949
  7      -0.047707817317
  8       0.010916386529
  9      -0.010343823896
 10      -0.002532230554
 11       0.014114616445
 12      -0.014773094324
 13       0.024734285043
 14       0.002846498029
 15       0.009963043665
 16       0.022631860454
 17       0.017782797541
 18       0.147412672563
 19      -0.200484463405
 20      -0.066299789931
 21      -0.038253321822
 22       0.055733860323
 23       0.016470434898
 24      -0.006047785810
 25       0.014745119135
 26      -0.010632109646
 27      -0.019718597359
 28       0.004718411619
 29       0.140423540325
 30       0.304943163362
 31       0.257036500258
 32       0.039373262815
 33      -0.073785181054
 34      -0.134545046971
 35       0.027387398305
 36      -0.019843438007
 37       0.065923968980
 38       0.018866807515
 39       0.010943014631
 40      -0.005544394667
 41       0.005229291066
 42       0.011693898876
 43      -0.208688831999
 44      -0.452079790653
 45      -0.380766283172
 46      -0.010010248056
 47      -0.039441374036
 48       0.071147110499
 49       0.056289078053
 50      -0.045267687930
 51      -0.069390557065
 52      -0.007291594372
 53       0.007196798748
 54      -0.004577072593
 55      -0.001478730571
 56      -0.002119431065
 Sym= A
 Ene=        -1.3716236460
 Spin= Alpha
 Occup=  1.0000
  1       0.200096846474
  2       0.434693009284
  3       0.366909263812
  4      -0.001137436176
  5       0.082577068542
  6      -0.051707204140
  7      -0.051678404593
  8      -0.070184238304
  9      -0.039525465113
 10      -0.006262822061
 11      -0.004499015034
 12       0.004396637427
 13      -0.007840871515
 14       0.007443079582
 15       0.007639366468
 16       0.017638966025
 17       0.013944307265
 18      -0.150724867425
 19      -0.043296064496
 20      -0.203694305591
 21       0.042326398911
 22       0.013141684879
 23       0.054387145813
 24      -0.019987254818
 25       0.003058182030
 26       0.010739128072
 27       0.006157735173
 28       0.014467556343
 29      -0.157442449858
 30      -0.342047613569
 31      -0.289583821440
 32      -0.033573952165
 33      -0.126467070162
 34      -0.065527398952
 35      -0.033565796398
 36       0.068402940254
 37      -0.026544981666
 38       0.013296323930
 39       0.009893022755
 40       0.005484011147
 41       0.012214069436
 42       0.010894111746
 43      -0.047891439338
 44      -0.103812082972
 45      -0.087264294055
 46      -0.144181541253
 47      -0.007628553482
 48      -0.127061532769
 49       0.043949780742
 50      -0.010624735864
 51       0.015667027387
 52       0.021158000610
 53       0.001376617829
 54       0.014427741697
 55      -0.013357098573
 56       0.015247826138
 Sym= A
 Ene=        -1.0648697841
 Spin= Alpha
 Occup=  1.0000
  1       0.056167857768
  2       0.116855515257
  3       0.176321039257
  4      -0.150889990246
  5      -0.154215548686
  6       0.032173110403
  7       0.035133572582
  8       0.036333710256
  9      -0.021065794365
 10       0.022636970098
 11      -0.009065735864
 12      -0.009570025306
 13       0.000176521654
 14      -0.027382672582
 15       0.056722340989
 16       0.159627897375
 17      -0.027134309124
 18       0.295997709963
 19       0.305246715608
 20      -0.298105725221
 21      -0.184719674553
 22      -0.190051703845
 23       0.185867064593
 24      -0.000119641401
 25       0.012128066485
 26       0.012221562717
 27      -0.000210437164
 28      -0.012094380888
 29       0.057235801730
 30       0.119256248938
 31       0.179864332244
 32      -0.028721277478
 33      -0.155950779163
 34       0.155782610623
 35       0.020100150621
 36       0.036735244616
 37      -0.036682986846
 38      -0.011474737798
 39      -0.009848560689
 40       0.027426562374
 41       0.019327857796
 42       0.010134459363
 43       0.055673987339
 44       0.115760261175
 45       0.175554648305
 46      -0.150039860419
 47      -0.025006483303
 48       0.151917453677
 49       0.034542382319
 50       0.018015833917
 51      -0.035504792286
 52      -0.011016366235
 53       0.026601102827
 54      -0.010163164888
 55      -0.018916313087
 56       0.009933110812
 Sym= A
 Ene=        -0.9576272012
 Spin= Alpha
 Occup=  1.0000
  1       0.070061561950
  2       0.157289159564
  3       0.128207286012
  4      -0.077330653096
  5      -0.069215798701
  6      -0.337745876054
  7       0.049018287711
  8       0.045524150812
  9       0.163472093092
 10      -0.023129341034
 11      -0.020002979922
 12      -0.019208649870
 13      -0.000191976548
 14      -0.006974026227
 15      -0.056059449323
 16      -0.164737689691
 17       0.018789329538
 18      -0.092917462558
 19      -0.104174234564
 20       0.104477114368
 21       0.088435010804
 22       0.095614205354
 23      -0.095120897405
 24       0.000237989699
 25       0.011349794341
 26       0.010925059728
 27       0.000277297619
 28      -0.011382676373
 29       0.067094911632
 30       0.150350674529
 31       0.121027829470
 32       0.339464704781
 33      -0.062035256307
 34       0.069585561422
 35      -0.164609090592
 36       0.042654729270
 37      -0.045674451581
 38       0.011698546063
 39      -0.019947527577
 40       0.005932165401
 41      -0.021053558349
 42       0.019140185235
 43       0.069263412394
 44       0.154895274037
 45       0.129004345220
 46      -0.070998260470
 47       0.324677423329
 48       0.066769156879
 49       0.045832206719
 50      -0.155846783772
 51      -0.043478149166
 52       0.011821102107
 53       0.006797512015
 54      -0.018427654856
 55       0.020422280878
 56       0.019071638401
 Sym= A
 Ene=        -0.9131260774
 Spin= Alpha
 Occup=  1.0000
  1       0.043882105007
  2       0.104019547913
  3       0.087292091460
  4      -0.030422933350
  5      -0.124916850953
  6       0.011486810746
  7       0.006067699518
  8       0.075153697236
  9      -0.003319056306
 10       0.005420044429
 11       0.013967039239
 12      -0.008936100112
 13      -0.009199366164
 14      -0.009998787290
 15      -0.001290655635
 16      -0.002946509743
 17       0.001213277918
 18      -0.269324945243
 19       0.425013303203
 20       0.172979811665
 21       0.159556899520
 22      -0.249037489882
 23      -0.102759007111
 24       0.005042498370
 25      -0.014556987933
 26       0.009540671175
 27       0.011752457501
 28      -0.005938569461
 29       0.065316891887
 30       0.154366177662
 31       0.133680609488
 32      -0.029613775399
 33      -0.156712248751
 34       0.087527799280
 35       0.012472588368
 36       0.089542361833
 37      -0.036172624432
 38      -0.012107395962
 39       0.013778748588
 40       0.016178152698
 41       0.003064233111
 42       0.005206421226
 43      -0.109377843169
 44      -0.257800122427
 45      -0.226919405845
 46       0.210854685258
 47       0.050082426639
 48      -0.191101032954
 49      -0.107983497870
 50      -0.020511474955
 51       0.095022995129
 52       0.008468823412
 53      -0.026373190375
 54      -0.009207979657
 55       0.012717453666
 56       0.005375634202
 Sym= A
 Ene=        -0.9119967050
 Spin= Alpha
 Occup=  1.0000
  1       0.108425839312
  2       0.256805700095
  3       0.217968237742
  4      -0.201867289494
  5      -0.177547380123
  6       0.022330013356
  7       0.108334188321
  8       0.087549890360
  9      -0.003882134814
 10       0.014085967294
 11       0.001420316360
 12       0.009991466726
 13       0.004794619827
 14      -0.023022900885
 15       0.000619401201
 16       0.002304464605
 17      -0.001855610015
 18       0.343314841352
 19       0.057207900672
 20       0.392134108899
 21      -0.202752881550
 22      -0.034506058885
 23      -0.229340369644
 24       0.014026103308
 25      -0.001377537929
 26      -0.010415502045
 27      -0.005611315387
 28      -0.011803818566
 29      -0.093463663611
 30      -0.220765367953
 31      -0.189146524245
 32       0.013827592628
 33       0.158771316217
 34      -0.173165143572
 35      -0.001030930683
 36      -0.075366019270
 37       0.095764731413
 38      -0.001788370155
 39       0.001001723228
 40      -0.020296293378
 41      -0.014325488987
 42       0.010133720506
 43      -0.017148479900
 44      -0.040418177065
 45      -0.033344686365
 46       0.009108482244
 47      -0.008313734199
 48      -0.044901151434
 49       0.005603711841
 50       0.006022499806
 51       0.034154448251
 52      -0.011090208651
 53      -0.002952320676
 54       0.009367029923
 55       0.007901981942
 56       0.010023632788
 Sym= A
 Ene=        -0.8850549130
 Spin= Alpha
 Occup=  1.0000
  1       0.032037272892
  2       0.077860239921
  3       0.042615027712
  4      -0.303275113903
  5       0.248466084405
  6      -0.120983393340
  7       0.167842634927
  8      -0.127581108105
  9       0.078416239334
 10       0.000908243627
 11      -0.026991069346
 12       0.015488003945
 13      -0.028656355343
 14       0.005299151292
 15       0.001050684741
 16       0.002883546683
 17      -0.001073268082
 18       0.026672508585
 19      -0.054245500235
 20      -0.035956280070
 21      -0.025777301780
 22       0.047276526012
 23       0.029098874295
 24       0.007069627860
 25       0.011875697655
 26      -0.006912487587
 27       0.015653733560
 28       0.005848169757
 29       0.048284124579
 30       0.117408170606
 31       0.065404777398
 32       0.163008365401
 33       0.207151290494
 34       0.294568852614
 35      -0.107036697990
 36      -0.103389375389
 37      -0.166339444878
 38      -0.022725130180
 39      -0.027110680331
 40      -0.006558512985
 41      -0.011206520651
 42      -0.012404453911
 43      -0.083357912909
 44      -0.202727662470
 45      -0.110382161008
 46       0.046806703988
 47      -0.299301099459
 48      -0.095504270757
 49      -0.040524098364
 50       0.195191401748
 51       0.065942738553
 52       0.002737385768
 53       0.011806985052
 54       0.015907684540
 55      -0.000850309278
 56      -0.012130885748
 Sym= A
 Ene=        -0.8810289420
 Spin= Alpha
 Occup=  1.0000
  1       0.063197758396
  2       0.154643072785
  3       0.073926317690
  4       0.086040604014
  5      -0.178177334827
  6      -0.272418026691
  7      -0.033221559810
  8       0.110335807163
  9       0.178000223327
 10       0.000497537813
 11      -0.002818133846
 12      -0.023393230882
 13       0.013089141370
 14       0.013212448384
 15       0.000275255978
 16       0.000546999290
 17       0.000583291790
 18      -0.072311975524
 19      -0.017274785624
 20      -0.090160060655
 21       0.056776704116
 22       0.011959623408
 23       0.068882058392
 24       0.014415582159
 25       0.001270429404
 26       0.010679841938
 27      -0.007090503898
 28       0.012196157491
 29      -0.059125706774
 30      -0.144856081925
 31      -0.069250160077
 32      -0.246902815663
 33       0.222170012157
 34       0.133614219164
 35       0.162211613531
 36      -0.133634830180
 37      -0.060601363969
 38      -0.014537209038
 39      -0.002515849779
 40       0.011498624240
 41      -0.008835299544
 42      -0.026201989492
 43      -0.004005728956
 44      -0.009871620914
 45      -0.003706128788
 46       0.305640828716
 47      -0.023858333454
 48       0.304784968915
 49      -0.167223019697
 50       0.015391531467
 51      -0.164751959818
 52      -0.025833928509
 53       0.001807229424
 54      -0.023529030787
 55       0.014934266739
 56      -0.026150445504
 Sym= A
 Ene=        -0.1591252921
 Spin= Alpha
 Occup=  0.0000
  1       0.007762990134
  2       0.016899822823
  3       0.154995214006
  4       0.236489691273
  5       0.270375599902
  6      -0.336358301134
  7      -0.326994557998
  8      -0.357162770184
  9       0.366915180800
 10      -0.004860963215
 11       0.003675625796
 12       0.002105547847
 13      -0.001924376349
 14      -0.000121164261
 15      -0.003696856610
 16      -0.008560594798
 17      -0.023509641706
 18       0.239233814290
 19       0.103740483274
 20       0.319445638971
 21      -0.315303672024
 22      -0.137296305095
 23      -0.414620828705
 24      -0.021904931043
 25       0.007766578229
 26       0.019880050690
 27       0.004789568120
 28       0.028405189423
 29      -0.003636528696
 30      -0.006615980737
 31      -0.100040305336
 32      -0.234283376549
 33      -0.230732582876
 34       0.115926691592
 35       0.250735440445
 36       0.282216002211
 37      -0.179155019276
 38       0.003602999940
 39      -0.003845815859
 40       0.000424216407
 41       0.006045952730
 42      -0.001536005064
 43      -0.000756974892
 44      -0.000661221096
 45      -0.035803656966
 46      -0.153952820715
 47      -0.096986994536
 48      -0.016286779438
 49       0.168938510908
 50       0.102756678914
 51      -0.011293244306
 52       0.006134261227
 53       0.000495916694
 54      -0.003745472791
 55      -0.005263329984
 56      -0.003514442315
 Sym= A
 Ene=        -0.1555818559
 Spin= Alpha
 Occup=  0.0000
  1       0.002118752880
  2       0.004965663641
  3       0.037215175224
  4       0.142218896400
  5      -0.019046526850
  6      -0.081512242426
  7      -0.159355151398
  8      -0.008184213370
  9       0.091258191429
 10      -0.001157843669
 11      -0.003318196923
 12       0.005257327116
 13       0.008036261851
 14      -0.000273993370
 15      -0.002632310279
 16      -0.004972860954
 17      -0.020486116681
 18      -0.240615175269
 19       0.327533421417
 20       0.072011030568
 21       0.312974818889
 22      -0.430421537964
 23      -0.091290264019
 24      -0.005465595481
 25       0.026948176311
 26      -0.020485719485
 27      -0.022058411382
 28       0.006268998060
 29       0.005108683476
 30       0.010978560972
 31       0.110308499987
 32       0.252080643487
 33       0.123293449673
 34      -0.249585213288
 35      -0.278059656497
 36      -0.191705818136
 37       0.313039949562
 38       0.006706772441
 39      -0.000836999768
 40       0.000649605151
 41      -0.000137456245
 42      -0.005377926053
 43      -0.004702879377
 44      -0.008648829840
 45      -0.131728622243
 46      -0.209886050806
 47      -0.333847160761
 48       0.269521506656
 49       0.291887361370
 50       0.366208929270
 51      -0.350531328540
 52      -0.004445376171
 53       0.000048102322
 54      -0.000826389678
 55      -0.003166864482
 56       0.003251896122
 Sym= A
 Ene=        -0.1202144631
 Spin= Alpha
 Occup=  0.0000
  1       0.002475688869
  2       0.006126009470
  3       0.018119829793
  4      -0.303989789630
  5       0.315479654751
  6       0.002139119265
  7       0.372856896845
  8      -0.392594292772
  9      -0.005562868998
 10      -0.000077062016
 11       0.009581712280
 12      -0.009349477854
 13      -0.002081670701
 14       0.000401370752
 15      -0.000095280921
 16      -0.000251286251
 17      -0.000530550234
 18       0.005690648175
 19      -0.001431255193
 20       0.003771227207
 21      -0.011781973567
 22       0.002368902433
 23      -0.008573228438
 24      -0.000371064336
 25      -0.000409181974
 26       0.001341451447
 27       0.000076461152
 28       0.000944831091
 29      -0.002497898611
 30      -0.006046021394
 31      -0.020255385115
 32       0.001032381503
 33      -0.318706980347
 34      -0.298952698718
 35      -0.004861328375
 36       0.397916167711
 37       0.366934700892
 38       0.002000370765
 39      -0.009542856834
 40       0.000474438907
 41       0.001311999144
 42      -0.009504945025
 43       0.000101750039
 44       0.000138236728
 45       0.002589256803
 46       0.315609619049
 47       0.004285956573
 48       0.309534318328
 49      -0.396692930037
 50      -0.004910233299
 51      -0.387658795788
 52      -0.001837476036
 53      -0.000126384932
 54       0.009906286376
 55       0.000929096109
 56       0.009968945079
 Sym= A
 Ene=        -0.0432474092
 Spin= Alpha
 Occup=  0.0000
  1       0.068456001213
  2       0.186181106301
  3       0.539907639806
  4       0.173270045958
  5       0.183591948359
  6       0.009381414749
  7      -0.411196985108
  8      -0.438193479982
  9       0.099144991583
 10       0.006279049828
 11       0.020087515181
 12       0.018761499647
 13       0.000477397827
 14      -0.012459073176
 15      -0.166137949423
 16      -0.399572655141
 17      -1.434642545389
 18       0.260621962364
 19       0.260987809178
 20      -0.269578168111
 21      -0.607884883740
 22      -0.625833206152
 23       0.604037162683
 24      -0.001138391303
 25      -0.001368327184
 26      -0.002842087135
 27      -0.000680666241
 28       0.004705656477
 29       0.053969168407
 30       0.149736746947
 31       0.429925060972
 32       0.036801315543
 33       0.178612942563
 34      -0.149213212826
 35      -0.185027272709
 36      -0.430357907304
 37       0.359510043839
 38      -0.002847505907
 39       0.021105283881
 40       0.015377776597
 41       0.006933940831
 42      -0.016666638997
 43       0.045291718738
 44       0.127264970935
 45       0.361334211326
 46       0.163574229085
 47       0.062138500567
 48      -0.146427650967
 49      -0.394241677887
 50      -0.232839830024
 51       0.353233123054
 52      -0.003422187681
 53       0.016393574760
 54       0.019860471683
 55      -0.006874108262
 56      -0.017068887664
 Sym= A
 Ene=        -0.0245011746
 Spin= Alpha
 Occup=  0.0000
  1       0.073377717397
  2       0.178638759322
  3       0.659416820210
  4       0.002014044393
  5       0.215462736921
  6       0.181545736589
  7       0.081039169669
  8      -0.548470936228
  9      -0.407414859659
 10      -0.002809509303
 11       0.020567633312
 12      -0.018876188950
 13       0.012266817578
 14       0.013109494935
 15       0.012058562671
 16       0.027973290829
 17       0.119187559273
 18      -0.047475100968
 19       0.034077296688
 20       0.046180283110
 21       0.214711681075
 22      -0.281649079934
 23      -0.216181472788
 24      -0.010431771273
 25       0.032311629280
 26      -0.015144984615
 27      -0.018063975035
 28       0.015887093351
 29       0.069522678136
 30       0.169562090999
 31       0.624479464512
 32      -0.171685901826
 33       0.209898747435