[Molden Format]
[Atoms] (AU)
N    1    7         0.982657589101       0.996830535097       0.968484643104
N    2    7        -0.982657589101      -0.987381904433       0.987381904433
N    3    7        -0.982657589101       0.977933273768      -0.977933273768
N    4    7         0.982657589101      -0.987381904433      -0.977933273768
[GTO]
  1 0
 s    5  1.00
     1712.8415853000        -1.0337580570
      257.6481267700        -1.8620740219
       58.4582458500        -2.7290401781
       16.1983679100        -2.6956734544
        5.0052600800        -1.0640914404
 s    1  1.00
        0.5873185700         0.4781513560
 s    1  1.00
        0.1876459200         0.2031956642
 p    3  1.00
       13.5714702300        -2.1850244156
        2.9257372900        -1.7466999024
        0.7992775100        -0.8114650542
 p    1  1.00
        0.2195434800         0.2142105064
 d    1  1.00
        1.0000000000         1.6459227806

  2 0
 s    5  1.00
     1712.8415853000        -1.0337580570
      257.6481267700        -1.8620740219
       58.4582458500        -2.7290401781
       16.1983679100        -2.6956734544
        5.0052600800        -1.0640914404
 s    1  1.00
        0.5873185700         0.4781513560
 s    1  1.00
        0.1876459200         0.2031956642
 p    3  1.00
       13.5714702300        -2.1850244156
        2.9257372900        -1.7466999024
        0.7992775100        -0.8114650542
 p    1  1.00
        0.2195434800         0.2142105064
 d    1  1.00
        1.0000000000         1.6459227806

  3 0
 s    5  1.00
     1712.8415853000        -1.0337580570
      257.6481267700        -1.8620740219
       58.4582458500        -2.7290401781
       16.1983679100        -2.6956734544
        5.0052600800        -1.0640914404
 s    1  1.00
        0.5873185700         0.4781513560
 s    1  1.00
        0.1876459200         0.2031956642
 p    3  1.00
       13.5714702300        -2.1850244156
        2.9257372900        -1.7466999024
        0.7992775100        -0.8114650542
 p    1  1.00
        0.2195434800         0.2142105064
 d    1  1.00
        1.0000000000         1.6459227806

  4 0
 s    5  1.00
     1712.8415853000        -1.0337580570
      257.6481267700        -1.8620740219
       58.4582458500        -2.7290401781
       16.1983679100        -2.6956734544
        5.0052600800        -1.0640914404
 s    1  1.00
        0.5873185700         0.4781513560
 s    1  1.00
        0.1876459200         0.2031956642
 p    3  1.00
       13.5714702300        -2.1850244156
        2.9257372900        -1.7466999024
        0.7992775100        -0.8114650542
 p    1  1.00
        0.2195434800         0.2142105064
 d    1  1.00
        1.0000000000         1.6459227806

[5d]
[9g]

[MO]
 Sym= A
 Ene=       -16.1586372510
 Spin= Alpha
 Occup=  1.0000
  1       0.002616922709
  2      -0.000155882003
  3      -0.003937186515
  4       0.000037166213
  5       0.000036442979
  6      -0.000112382398
  7       0.001346090408
  8       0.001371729397
  9      -0.000929422228
 10      -0.000390005090
 11       0.000090750600
 12       0.000089653298
 13      -0.000004920517
 14       0.000656389892
 15       0.990554343377
 16      -0.034448903719
 17       0.021171817239
 18       0.001084259788
 19       0.001006419131
 20      -0.001099506495
 21       0.003842692313
 22       0.003823888907
 23      -0.003876263152
 24      -0.000009708468
 25       0.000134691099
 26       0.000126910664
 27       0.000002905002
 28      -0.000122662701
 29       0.002702007626
 30      -0.000177702608
 31      -0.003874047979
 32       0.000115668557
 33       0.000048339413
 34      -0.000049064478
 35       0.000960734827
 36       0.001355064976
 37      -0.001322152079
 38       0.000200439733
 39       0.000099600154
 40      -0.000675820375
 41      -0.000343187812
 42      -0.000095233986
 43       0.002578617087
 44      -0.000178917897
 45      -0.003856516561
 46       0.000050850527
 47       0.000117262625
 48      -0.000051629604
 49       0.001340930137
 50       0.000979974340
 51      -0.001330501935
 52       0.000199307021
 53      -0.000682608690
 54       0.000099750972
 55       0.000345725176
 56      -0.000097218876
 Sym= A
 Ene=       -16.0969335551
 Spin= Alpha
 Occup=  1.0000
  1       0.926212700297
  2      -0.030460083394
  3       0.017919314568
  4      -0.002255602157
  5      -0.002315665647
  6      -0.002027935598
  7      -0.003745330803
  8      -0.004450138055
  9      -0.003446699473
 10      -0.000044053199
 11       0.000089779556
 12      -0.000095260542
 13       0.000103036240
 14       0.000115331323
 15      -0.003361429251
 16      -0.000313421001
 17      -0.005503360132
 18       0.000050530629
 19       0.000011590643
 20      -0.000117000194
 21      -0.001013965884
 22      -0.001717574791
 23      -0.000303224240
 24      -0.000300838836
 25      -0.000189122336
 26      -0.000372514891
 27      -0.000111720849
 28       0.000722350482
 29       0.347193184538
 30      -0.011731125318
 31       0.003545585340
 32       0.000747982221
 33      -0.000971426223
 34       0.000841233811
 35       0.000244895698
 36      -0.002434628340
 37       0.000455838310
 38       0.000189564621
 39       0.000670655488
 40      -0.000114630706
 41       0.000326573416
 42      -0.000072810096
 43       0.064903832361
 44      -0.002530611766
 45      -0.003673794793
 46      -0.000277420970
 47       0.000124067066
 48       0.000193881669
 49      -0.000728369243
 50      -0.001432102860
 51      -0.000571045495
 52       0.000037912160
 53      -0.000132267690
 54       0.000731198649
 55      -0.000356626923
 56      -0.000346154093
 Sym= A
 Ene=       -16.0963212530
 Spin= Alpha
 Occup=  1.0000
  1       0.349759449131
  2      -0.011126492281
  3       0.011171869470
  4      -0.000870572329
  5      -0.000730567720
  6      -0.000800293911
  7      -0.002771224251
  8      -0.000707449796
  9      -0.002760650557
 10      -0.000267380747
 11      -0.000806101840
 12      -0.000200245036
 13      -0.000346750891
 14      -0.000075517141
 15       0.001601354271
 16       0.000153305703
 17       0.002509609145
 18      -0.000121872493
 19       0.000003981488
 20      -0.000054609881
 21      -0.001340888471
 22       0.000761352116
 23      -0.001634788101
 24      -0.000360053348
 25       0.000086476285
 26       0.000671639520
 27       0.000334513836
 28       0.000159344943
 29      -0.926743454889
 30       0.030296059849
 31      -0.020907215320
 32      -0.002083005738
 33       0.002207491526
 34      -0.002295075531
 35      -0.004486180377
 36       0.003755414937
 37      -0.004669701564
 38       0.000032063863
 39       0.000457412139
 40       0.000026162571
 41       0.000252144662
 42      -0.000183281031
 43      -0.035218700091
 44       0.001331748871
 45       0.001592181553
 46       0.000029115546
 47      -0.000069970964
 48      -0.000211784423
 49      -0.001427564561
 50       0.000618299445
 51      -0.001500143492
 52       0.000474170147
 53       0.000059412705
 54       0.000180406100
 55      -0.000132237799
 56       0.000664263678
 Sym= A
 Ene=       -16.0932672899
 Spin= Alpha
 Occup=  1.0000
  1       0.048231309054
  2      -0.001275604866
  3       0.004677750652
  4       0.000015189371
  5      -0.000135449674
  6      -0.000121019521
  7       0.000822673231
  8      -0.001593263533
  9      -0.001410238244
 10      -0.000206079988
 11      -0.000069339370
 12      -0.000760093178
 13       0.000398352024
 14      -0.000088094997
 15       0.002158924055
 16       0.000222639057
 17       0.003569243377
 18       0.000017006204
 19      -0.000134020523
 20      -0.000015222874
 21       0.001331669523
 22      -0.001120974391
 23      -0.001297392024
 24      -0.000225157698
 25       0.000743047546
 26       0.000056206981
 27      -0.000393548319
 28      -0.000060840811
 29       0.055693077812
 30      -0.001520465078
 31       0.004865317422
 32       0.000138081467
 33      -0.000152151909
 34       0.000005620235
 35       0.001462422000
 36      -0.001603422727
 37      -0.000774979297
 38       0.000446948513
 39      -0.000076631310
 40       0.000090181998
 41       0.000002839130
 42       0.000761224819
 43      -0.988490811601
 44       0.032254673866
 45      -0.021212429630
 46       0.002393888270
 47      -0.002200698442
 48      -0.002390653452
 49       0.004438383931
 50      -0.004438922908
 51      -0.004410525101
 52      -0.000076187880
 53       0.000044595506
 54       0.000238902032
 55      -0.000124863294
 56      -0.000245491773
 Sym= A
 Ene=        -2.0106120977
 Spin= Alpha
 Occup=  1.0000
  1       0.127104516518
  2       0.259806606007
  3       0.061633746323
  4       0.077711218989
  5       0.077966672087
  6       0.079041604689
  7      -0.021449684249
  8      -0.021728519899
  9      -0.022068241468
 10       0.001146910015
 11       0.013745764101
 12       0.013796006052
 13      -0.000141350756
 14       0.012854670519
 15       0.145540729238
 16       0.307523285897
 17       0.073675291030
 18      -0.074139402285
 19      -0.073352709189
 20       0.075259671875
 21       0.019967660313
 22       0.019591812770
 23      -0.020126430376
 24       0.000066471664
 25      -0.013385579732
 26      -0.013374592906
 27      -0.000156398017
 28       0.013235782559
 29       0.128023168128
 30       0.261587124026
 31       0.062794433434
 32      -0.080164458096
 33       0.077659094528
 34      -0.078407440123
 35       0.022694222782
 36      -0.021713285113
 37       0.021885674879
 38      -0.000714165656
 39       0.013917993782
 40      -0.012822908943
 41       0.001271209199
 42      -0.013739785638
 43       0.126202147640
 44       0.257370461500
 45       0.060795401693
 46       0.077366662538
 47      -0.079139693323
 48      -0.076871003897
 49      -0.021282951150
 50       0.022061945409
 51       0.021309037254
 52      -0.000796194649
 53      -0.012741636674
 54       0.013825205751
 55      -0.001185461662
 56      -0.013868777612
 Sym= A
 Ene=        -1.4444089259
 Spin= Alpha
 Occup=  1.0000
  1       0.082664396916
  2       0.176843760237
  3       0.134250135100
  4      -0.025719438007
  5      -0.033679310124
  6       0.136733853397
  7      -0.016791142884
  8      -0.015795356619
  9      -0.046769456897
 10       0.019426423503
 11       0.012102944785
 12       0.011323023984
 13       0.000741487942
 14      -0.010315595833
 15      -0.261843729285
 16      -0.596303207077
 17      -0.425167740220
 18      -0.071007623210
 19      -0.085432324006
 20       0.065292595333
 21      -0.022813321691
 22      -0.018696830058
 23       0.024846598256
 24      -0.000608479087
 25       0.005114001369
 26       0.004424572924
 27      -0.000170546835
 28      -0.003966082029
 29       0.075530405052
 30       0.161381835007
 31       0.124066398184
 32      -0.138213137763
 33      -0.039956691406
 34       0.027279057623
 35       0.045813971386
 36      -0.012961076666
 37       0.015191496731
 38      -0.009074745624
 39       0.012138041079
 40       0.010878399620
 41       0.017871275957
 42      -0.010580360756
 43       0.064447629181
 44       0.137333698480
 45       0.105232816063
 46      -0.037446338339
 47      -0.137638911237
 48       0.033843264920
 49      -0.010769493949
 50       0.042222146596
 51       0.011412825670
 52      -0.009781997849
 53       0.011154911203
 54       0.011528572654
 55      -0.017590934034
 56      -0.011101314514
 Sym= A
 Ene=        -1.3737556907
 Spin= Alpha
 Occup=  1.0000
  1       0.060361842008
  2       0.131091926794
  3       0.109622044479
  4       0.149044451183
  5      -0.119756834035
  6      -0.020001435367
  7      -0.047930936412
  8       0.010615088928
  9      -0.010526992971
 10      -0.002553861426
 11       0.014099115131
 12      -0.014750884183
 13       0.024701433037
 14       0.002875392659
 15       0.009943331031
 16       0.022590976068
 17       0.017748636544
 18       0.146763017261
 19      -0.200683613113
 20      -0.067134283978
 21      -0.038081358511
 22       0.055785452453
 23       0.016700891688
 24      -0.006133646086
 25       0.014758054616
 26      -0.010585046881
 27      -0.019692931693
 28       0.004776163017
 29       0.139769585480
 30       0.303517726266
 31       0.255831716841
 32       0.039184975803
 33      -0.074312570832
 34      -0.134802226950
 35       0.027259873964
 36      -0.019561523841
 37       0.065809312866
 38       0.018920175507
 39       0.010988363160
 40      -0.005519722670
 41       0.005284641271
 42       0.011735161836
 43      -0.208880413335
 44      -0.452501604885
 45      -0.381110619973
 46      -0.010624726153
 47      -0.039521501505
 48       0.070625726134
 49       0.056469879744
 50      -0.045297270919
 51      -0.069324165811
 52      -0.007204610141
 53       0.007205232237
 54      -0.004509801224
 55      -0.001539333406
 56      -0.002059141343
 Sym= A
 Ene=        -1.3716162058
 Spin= Alpha
 Occup=  1.0000
  1       0.199840273339
  2       0.434135019135
  3       0.366449808382
  4      -0.001768102971
  5       0.083087921353
  6      -0.051632829314
  7      -0.051476135352
  8      -0.070231742621
  9      -0.039479102628
 10      -0.006253373564
 11      -0.004559031518
 12       0.004458116638
 13      -0.007944555222
 14       0.007430467810
 15       0.007604672110
 16       0.017559913175
 17       0.013880589344
 18      -0.151350681915
 19      -0.042438086929
 20      -0.203423058064
 21       0.042491023172
 22       0.012902958086
 23       0.054320094898
 24      -0.019960384699
 25       0.002994851197
 26       0.010785811982
 27       0.006239446645
 28       0.014448499507
 29      -0.158028898155
 30      -0.343315203492
 31      -0.290664267941
 32      -0.033727011416
 33      -0.126141658494
 34      -0.064947516601
 35      -0.033685175378
 36       0.068481623913
 37      -0.026827585880
 38       0.013215659830
 39       0.009845247784
 40       0.005508193760
 41       0.012190813625
 42       0.010846403748
 43      -0.047016298900
 44      -0.101918150785
 45      -0.085664430789
 46      -0.144152123446
 47      -0.007449616099
 48      -0.127371695500
 49       0.043717269526
 50      -0.010439016495
 51       0.015962288667
 52       0.021190190074
 53       0.001346073580
 54       0.014447081997
 55      -0.013350468103
 56       0.015257662652
 Sym= A
 Ene=        -1.0648759834
 Spin= Alpha
 Occup=  1.0000
  1       0.056163292080
  2       0.116845579219
  3       0.176309006889
  4      -0.150887357715
  5      -0.154201567632
  6       0.032187356555
  7       0.035133169471
  8       0.036326533155
  9      -0.021070263814
 10       0.022637471449
 11      -0.009065886280
 12      -0.009567854339
 13       0.000177479024
 14      -0.027382215718
 15       0.056719286442
 16       0.159624362402
 17      -0.027153186248
 18       0.296039093949
 19       0.305204031905
 20      -0.298125371381
 21      -0.184746215212
 22      -0.190028412458
 23       0.185880853650
 24      -0.000118516516
 25       0.012126281078
 26       0.012220246520
 27      -0.000206066091
 28      -0.012093387484
 29       0.057226914231
 30       0.119234953713
 31       0.179844644607
 32      -0.028723355843
 33      -0.155920499638
 34       0.155762906093
 35       0.020099807832
 36       0.036722107468
 37      -0.036675504687
 38      -0.011473629515
 39      -0.009848748274
 40       0.027422970513
 41       0.019327061339
 42       0.010132259058
 43       0.055685063621
 44       0.115785641646
 45       0.175586734338
 46      -0.150062835768
 47      -0.025034647195
 48       0.151939548281
 49       0.034547483028
 50       0.018030546894
 51      -0.035508255880
 52      -0.011018787108
 53       0.026604819491
 54      -0.010161996586
 55      -0.018919466474
 56       0.009931516393
 Sym= A
 Ene=        -0.9576255139
 Spin= Alpha
 Occup=  1.0000
  1       0.070060865474
  2       0.157285882695
  3       0.128209748378
  4      -0.077290036064
  5      -0.069273872939
  6      -0.337735758773
  7       0.048997768254
  8       0.045551568650
  9       0.163467033227
 10      -0.023128291083
 11      -0.019996949232
 12      -0.019214094662
 13      -0.000186335892
 14      -0.006976982101
 15      -0.056055660539
 16      -0.164729426598
 17       0.018799346623
 18      -0.092925915238
 19      -0.104125607952
 20       0.104491416966
 21       0.088443190329
 22       0.095583714397
 23      -0.095130575750
 24       0.000236981430
 25       0.011349123076
 26       0.010927011920
 27       0.000272236291
 28      -0.011384592444
 29       0.067103636710
 30       0.150366664414
 31       0.121067672164
 32       0.339401778347
 33      -0.062087597562
 34       0.069557431757
 35      -0.164570132424
 36       0.042676555855
 37      -0.045655591393
 38       0.011700965071
 39      -0.019941445531
 40       0.005934632297
 41      -0.021050454807
 42       0.019141839444
 43       0.069259229786
 44       0.154888473525
 45       0.128976408567
 46      -0.070990286966
 47       0.324751736640
 48       0.066772653843
 49       0.045835231029
 50      -0.155890767182
 51      -0.043484098899
 52       0.011819742569
 53       0.006794846036
 54      -0.018434581438
 55       0.020423546335
 56       0.019074197019
 Sym= A
 Ene=        -0.9131283732
 Spin= Alpha
 Occup=  1.0000
  1       0.043793144287
  2       0.103808055317
  3       0.087124175203
  4      -0.030264507629
  5      -0.124771551364
  6       0.011479629339
  7       0.005977906834
  8       0.075076071138
  9      -0.003320014308
 10       0.005412286128
 11       0.013965040066
 12      -0.008944914459
 13      -0.009204039158
 14      -0.009979631690
 15      -0.001275815342
 16      -0.002913272910
 17       0.001214343980
 18      -0.269579779513
 19       0.425005628945
 20       0.172561135730
 21       0.159699682487
 22      -0.249042462097
 23      -0.102505948398
 24       0.005036152807
 25      -0.014553703044
 26       0.009546720538
 27       0.011759283721
 28      -0.005920940943
 29       0.065398568451
 30       0.154556249319
 31       0.133861309033
 32      -0.029662684774
 33      -0.156814548511
 34       0.087716740885
 35       0.012492972529
 36       0.089581038415
 37      -0.036270341433
 38      -0.012110589534
 39       0.013776718607
 40       0.016197339304
 41       0.003078241923
 42       0.005193166994
 43      -0.109367818427
 44      -0.257777965668
 45      -0.226888810801
 46       0.210883388531
 47       0.050047881653
 48      -0.191042467483
 49      -0.108013903996
 50      -0.020494384044
 51       0.094986994124
 52       0.008474791143
 53      -0.026369354088
 54      -0.009215187325
 55       0.012709317716
 56       0.005363212496
 Sym= A
 Ene=        -0.9119966072
 Spin= Alpha
 Occup=  1.0000
  1       0.108459164580
  2       0.256883046107
  3       0.218041429889
  4      -0.201932736060
  5      -0.177601910292
  6       0.022359171407
  7       0.108360036872
  8       0.087584511164
  9      -0.003898686598
 10       0.014089863146
 11       0.001430569489
 12       0.009987789671
 13       0.004781487933
 14      -0.023033068956
 15       0.000617506823
 16       0.002301474979
 17      -0.001853988025
 18       0.343089229318
 19       0.057565234683
 20       0.392306743150
 21      -0.202620790796
 22      -0.034715281579
 23      -0.229445277906
 24       0.014025476963
 25      -0.001387562554
 26      -0.010411530260
 27      -0.005593327971
 28      -0.011812352740
 29      -0.093399285826
 30      -0.220609611685
 31      -0.189027865240
 32       0.013837030631
 33       0.158613118690
 34      -0.173068722859
 35      -0.001043878894
 36      -0.075273225448
 37       0.095720707338
 38      -0.001799515425
 39       0.001011599454
 40      -0.020282513050
 41      -0.014321784434
 42       0.010141040056
 43      -0.017251045546
 44      -0.040660637436
 45      -0.033555314590
 46       0.009258123206
 47      -0.008285622188
 48      -0.045127455583
 49       0.005527457304
 50       0.006014655919
 51       0.034269665002
 52      -0.011078170211
 53      -0.002975516961
 54       0.009364015057
 55       0.007911626352
 56       0.010031279285
 Sym= A
 Ene=        -0.8850502269
 Spin= Alpha
 Occup=  1.0000
  1       0.032004394723
  2       0.077777787884
  3       0.042559132989
  4      -0.303318872214
  5       0.248559837323
  6      -0.120964677092
  7       0.167868397066
  8      -0.127634036989
  9       0.078396456993
 10       0.000902836399
 11      -0.026994662956
 12       0.015492971103
 13      -0.028661565011
 14       0.005296283614
 15       0.001042661706
 16       0.002859736489
 17      -0.001062225488
 18       0.026665055092
 19      -0.054287918896
 20      -0.035932749973
 21      -0.025770677137
 22       0.047310645610
 23       0.029072744576
 24       0.007063011397
 25       0.011877494921
 26      -0.006913963560
 27       0.015656034321
 28       0.005842405579
 29       0.048321178694
 30       0.117494325263
 31       0.065460526078
 32       0.163144681651
 33       0.207025931365
 34       0.294515152128
 35      -0.107120188784
 36      -0.103312207792
 37      -0.166318184014
 38      -0.022716596770
 39      -0.027114715961
 40      -0.006562108371
 41      -0.011205720232
 42      -0.012394747405
 43      -0.083331126002
 44      -0.202668114532
 45      -0.110323346630
 46       0.046683730190
 47      -0.299265207974
 48      -0.095569657597
 49      -0.040458714481
 50       0.195174263762
 51       0.065974859350
 52       0.002749215574
 53       0.011808749335
 54       0.015914648684
 55      -0.000852857420
 56      -0.012120764015
 Sym= A
 Ene=        -0.8810297703
 Spin= Alpha
 Occup=  1.0000
  1       0.063220318522
  2       0.154696850576
  3       0.073968644966
  4       0.085895474609
  5      -0.178082829188
  6      -0.272450072243
  7      -0.033142014575
  8       0.110283589649
  9       0.178023307784
 10       0.000499091720
 11      -0.002829225843
 12      -0.023384482445
 13       0.013079610189
 14       0.013211478055
 15       0.000276243988
 16       0.000549970753
 17       0.000576998583
 18      -0.072241246665
 19      -0.017307820843
 20      -0.090143354551
 21       0.056727690235
 22       0.011983661448
 23       0.068876419044
 24       0.014420378769
 25       0.001274883062
 26       0.010676197796
 27      -0.007087269598
 28       0.012198018111
 29      -0.059135423862
 30      -0.144876408240
 31      -0.069290857596
 32      -0.246815039096
 33       0.222255977051
 34       0.133661250591
 35       0.162155541606
 36      -0.133676103814
 37      -0.060628922942
 38      -0.014544738803
 39      -0.002527673520
 40       0.011492794108
 41      -0.008840495702
 42      -0.026205249022
 43      -0.004023572086
 44      -0.009915675339
 45      -0.003711589453
 46       0.305671730934
 47      -0.024001010875
 48       0.304787937042
 49      -0.167247265499
 50       0.015483912233
 51      -0.164745313858
 52      -0.025835948137
 53       0.001813421116
 54      -0.023520042945
 55       0.014934071743
 56      -0.026153837128
 Sym= A
 Ene=        -0.1591184593
 Spin= Alpha
 Occup=  0.0000
  1       0.007771224544
  2       0.016919833245
  3       0.155126511733
  4       0.236968996876
  5       0.270274448221
  6      -0.336588508979
  7      -0.327540262218
  8      -0.357142540747
  9       0.367172710562
 10      -0.004864085979
 11       0.003666027631
 12       0.002121667176
 13      -0.001899767774
 14      -0.000121165603
 15      -0.003706375540
 16      -0.008578357442
 17      -0.023586169388
 18       0.238510491604
 19       0.104730877842
 20       0.319651166811
 21      -0.314368211394
 22      -0.138599840748
 23      -0.414883025537
 24      -0.021924381759
 25       0.007848417577
 26       0.019816579819
 27       0.004727857135
 28       0.028423624004
 29      -0.003621721762
 30      -0.006582766694
 31      -0.099715286754
 32      -0.233533846531
 33      -0.230321310841
 34       0.115221457178
 35       0.249919502650
 36       0.281597913755
 37      -0.178276750108
 38       0.003622254040
 39      -0.003845263861
 40       0.000427566385
 41       0.006046276300
 42      -0.001550895799
 43      -0.000771626691
 44      -0.000687944960
 45      -0.036206960919
 46      -0.154613592271
 47      -0.097977598787
 48      -0.015519882293
 49       0.169845666767
 50       0.103832172202
 51      -0.012292727569
 52       0.006121597576
 53       0.000495649672
 54      -0.003749776939
 55      -0.005274071220
 56      -0.003506690334
 Sym= A
 Ene=        -0.1555905619
 Spin= Alpha
 Occup=  0.0000
  1       0.002091019328
  2       0.004900688079
  3       0.036739109723
  4       0.141492099067
  5      -0.019858618541
  6      -0.080505029272
  7      -0.158342056893
  8      -0.007105134979
  9       0.090142813357
 10      -0.001146445925
 11      -0.003330222254
 12       0.005249117807
 13       0.008041933314
 14      -0.000273010415
 15      -0.002604951499
 16      -0.004919466212
 17      -0.020295465310
 18      -0.241349304799
 19       0.327203430095
 20       0.071097622340
 21       0.313952109377
 22      -0.429976456733
 23      -0.090114196834
 24      -0.005397131812
 25       0.026926976218
 26      -0.020547153684
 27      -0.022071962055
 28       0.006188479062
 29       0.005115306656
 30       0.010983966718
 31       0.110588051841
 32       0.252782179957
 33       0.123953873866
 34      -0.249927134489
 35      -0.278809632289
 36      -0.192513992911
 37       0.313563813315
 38       0.006697714887
 39      -0.000826725139
 40       0.000645826890
 41      -0.000158004549
 42      -0.005369639609
 43      -0.004706849681
 44      -0.008665785657
 45      -0.131666964126
 46      -0.209448798339
 47      -0.333547391626
 48       0.269587333114
 49       0.291412864014
 50       0.365877381067
 51      -0.350521927532
 52      -0.004461873092
 53       0.000044950275
 54      -0.000816011171
 55      -0.003148659648
 56       0.003266025547
 Sym= A
 Ene=        -0.1202120606
 Spin= Alpha
 Occup=  0.0000
  1       0.002483512697
  2       0.006142927844
  3       0.018209370164
  4      -0.303937067325
  5       0.315529245339
  6       0.002133132500
  7       0.372776412154
  8      -0.392670715645
  9      -0.005576168623
 10      -0.000078310624
 11       0.009584108899
 12      -0.009348581954
 13      -0.002081483165
 14       0.000401461133
 15      -0.000096643290
 16      -0.000254835968
 17      -0.000537343317
 18       0.005729874950
 19      -0.001417047548
 20       0.003818793742
 21      -0.011841305746
 22       0.002342201654
 23      -0.008649594174
 24      -0.000378074771
 25      -0.000408534000
 26       0.001345215042
 27       0.000076805652
 28       0.000948975874
 29      -0.002502137172
 30      -0.006054496253
 31      -0.020303440515
 32       0.001011802588
 33      -0.318753857242
 34      -0.298933984378
 35      -0.004847234295
 36       0.397981522714
 37       0.366903206500
 38       0.002003590535
 39      -0.009539645447
 40       0.000475243150
 41       0.001314442679
 42      -0.009500551999
 43       0.000099606654
 44       0.000133434351
 45       0.002556239141
 46       0.315579069387
 47       0.004304264538
 48       0.309533801522
 49      -0.396653453176
 50      -0.004945301583
 51      -0.387666624632
 52      -0.001834821484
 53      -0.000126666464
 54       0.009908087425
 55       0.000926987436
 56       0.009972840815
 Sym= A
 Ene=        -0.0432489907
 Spin= Alpha
 Occup=  0.0000
  1       0.068450048857
  2       0.186167116632
  3       0.539855957854
  4       0.173295047647
  5       0.183555300061
  6       0.009363579782
  7      -0.411257890984
  8      -0.438100902917
  9       0.099178645588
 10       0.006278645208
 11       0.020081977591
 12       0.018767091056
 13       0.000476297390
 14      -0.012459764128
 15      -0.166140656687
 16      -0.399578614261
 17      -1.434659551277
 18       0.260617237479
 19       0.260995985694
 20      -0.269581976186
 21      -0.607933854810
 22      -0.625778524642
 23       0.604055905208
 24      -0.001136960402
 25      -0.001374716784
 26      -0.002838540485
 27      -0.000676089177
 28       0.004705307159
 29       0.053947011242
 30       0.149678609894
 31       0.429733232652
 32       0.036881522694
 33       0.178580527776
 34      -0.149210656867
 35      -0.185177498351
 36      -0.430264215821
 37       0.359504092412
 38      -0.002848412376
 39       0.021100525220
 40       0.015379676554
 41       0.006933195923
 42      -0.016669754407
 43       0.045322237150
 44       0.127343397781
 45       0.361590342306
 46       0.163613216742
 47       0.062045001165
 48      -0.146452190020
 49      -0.394339624597
 50      -0.232659471885
 51       0.353289944297
 52      -0.003422037200
 53       0.016390410011
 54       0.019863472152
 55      -0.006873705035
 56      -0.017069127114
 Sym= A
 Ene=        -0.0245077614
 Spin= Alpha
 Occup=  0.0000
  1       0.073490803115
  2       0.178919425855
  3       0.660422907713
  4       0.002257174015
  5       0.215585475057
  6       0.181795995359
  7       0.080460079402
  8      -0.548717422776
  9      -0.407934354608
 10      -0.002810828611
 11       0.020564023893
 12      -0.018859160971
 13       0.012260418167
 14       0.013124452017
 15       0.012035822461
 16       0.027920986765
 17       0.118953224598
 18      -0.047399542258
 19       0.034107933210
 20       0.046163824062
 21       0.214384157884
 22      -0.281733603225
 23      -0.216288983181
 24      -0.010442803937
 25       0.032310946341
 26      -0.015124885724
 27      -0.018054727550
 28       0.015911804386
 29       0.069425405505
 30       0.169322724742
 31       0.623585644400
 32      -0.171438253094
 33       0.209834331960