[Molden Format]
[Atoms] AU
   N     1    7      0.98265751     0.99683046     0.96848457
   N     2    7     -0.98265751    -0.98738183     0.98738183
   N     3    7     -0.98265751     0.97793320    -0.97793320
   N     4    7      0.98265751    -0.98738183    -0.97793320
[GTO]
    1  0
  s      6  0
 19730.80064700     0.69560368
  2957.89587450     1.29860992
   673.22133595     2.21908805
   190.68249494     3.46366076
    62.29544190     4.69675555
    22.65416118     4.95225110
  s      2  0
     8.97914774     2.38806780
     3.68630024     0.73378787
  s      1  0
     0.84660077     0.62902671
  s      1  0
     0.33647134     0.31486265
  s      1  0
     0.13647654     0.16003080
  p      4  0
    49.20038051     2.12648139
    11.34679054     2.32793672
     3.42739724     2.04857292
     1.17855251     1.26073199
  p      1  0
     0.41642205     0.47682304
  p      1  0
     0.14260826     0.12491683
  d      1  0
     1.65400000     3.97051271
  d      1  0
     0.46900000     0.43748375
  f      1  0
     1.09300000     1.79824894

    2  0
  s      6  0
 19730.80064700     0.69560368
  2957.89587450     1.29860992
   673.22133595     2.21908805
   190.68249494     3.46366076
    62.29544190     4.69675555
    22.65416118     4.95225110
  s      2  0
     8.97914774     2.38806780
     3.68630024     0.73378787
  s      1  0
     0.84660077     0.62902671
  s      1  0
     0.33647134     0.31486265
  s      1  0
     0.13647654     0.16003080
  p      4  0
    49.20038051     2.12648139
    11.34679054     2.32793672
     3.42739724     2.04857292
     1.17855251     1.26073199
  p      1  0
     0.41642205     0.47682304
  p      1  0
     0.14260826     0.12491683
  d      1  0
     1.65400000     3.97051271
  d      1  0
     0.46900000     0.43748375
  f      1  0
     1.09300000     1.79824894

    3  0
  s      6  0
 19730.80064700     0.69560368
  2957.89587450     1.29860992
   673.22133595     2.21908805
   190.68249494     3.46366076
    62.29544190     4.69675555
    22.65416118     4.95225110
  s      2  0
     8.97914774     2.38806780
     3.68630024     0.73378787
  s      1  0
     0.84660077     0.62902671
  s      1  0
     0.33647134     0.31486265
  s      1  0
     0.13647654     0.16003080
  p      4  0
    49.20038051     2.12648139
    11.34679054     2.32793672
     3.42739724     2.04857292
     1.17855251     1.26073199
  p      1  0
     0.41642205     0.47682304
  p      1  0
     0.14260826     0.12491683
  d      1  0
     1.65400000     3.97051271
  d      1  0
     0.46900000     0.43748375
  f      1  0
     1.09300000     1.79824894

    4  0
  s      6  0
 19730.80064700     0.69560368
  2957.89587450     1.29860992
   673.22133595     2.21908805
   190.68249494     3.46366076
    62.29544190     4.69675555
    22.65416118     4.95225110
  s      2  0
     8.97914774     2.38806780
     3.68630024     0.73378787
  s      1  0
     0.84660077     0.62902671
  s      1  0
     0.33647134     0.31486265
  s      1  0
     0.13647654     0.16003080
  p      4  0
    49.20038051     2.12648139
    11.34679054     2.32793672
     3.42739724     2.04857292
     1.17855251     1.26073199
  p      1  0
     0.41642205     0.47682304
  p      1  0
     0.14260826     0.12491683
  d      1  0
     1.65400000     3.97051271
  d      1  0
     0.46900000     0.43748375
  f      1  0
     1.09300000     1.79824894

[5D]
[9G]
[MO]
Sym=        a    
Ene=    -15.75087
Spin=       Alpha
Occup=    2.00000
     1    0.226257176292
     2    0.317434697936
     3    0.009879102351
     4   -0.002899268043
     5    0.000605148719
     6   -0.001150300408
     7   -0.001154443580
     8   -0.001145355910
     9    0.000431501341
    10    0.000480408866
    11    0.000396168162
    12   -0.000159965405
    13   -0.000163615641
    14   -0.000157052089
    15    0.000001331110
    16    0.000162599106
    17    0.000159377482
    18    0.000001166919
    19    0.000156850431
    20    0.000017498331
    21   -0.000128026585
    22   -0.000150082006
    23    0.000012851841
    24   -0.000166262096
    25   -0.000036200519
    26    0.000018387779
    27    0.000019406532
    28   -0.000002465112
    29   -0.000008545553
    30   -0.000030241444
    31    0.000027527800
    32    0.215717850695
    33    0.302651035386
    34    0.009310660593
    35   -0.002432779824
    36    0.000553923111
    37    0.001080729281
    38    0.001085759430
    39   -0.001097142143
    40   -0.000312142344
    41   -0.000263344371
    42    0.000284954222
    43    0.000159869012
    44    0.000156793122
    45   -0.000159864875
    46    0.000002906436
    47   -0.000152787464
    48   -0.000156589301
    49   -0.000002086578
    50    0.000151298971
    51   -0.000000442032
    52    0.000113179435
    53    0.000088578464
    54   -0.000012932642
    55   -0.000101074700
    56   -0.000030636461
    57   -0.000021040599
    58   -0.000018012190
    59    0.000004486851
    60   -0.000012101622
    61    0.000022108007
    62   -0.000024439126
    63    0.232971959286
    64    0.326853047011
    65    0.010251158006
    66   -0.003214925198
    67    0.000641936237
    68    0.001199473209
    69   -0.001180943840
    70    0.001194447124
    71   -0.000512501893
    72    0.000554062751
    73   -0.000548946536
    74    0.000160796679
    75   -0.000161218183
    76    0.000163390010
    77    0.000000435930
    78    0.000167071029
    79   -0.000160480023
    80    0.000004296473
    81   -0.000163603319
    82   -0.000004859577
    83   -0.000173749335
    84    0.000194308900
    85    0.000010047994
    86    0.000175816583
    87    0.000038556935
    88   -0.000023820493
    89    0.000025973833
    90    0.000002154929
    91   -0.000005681445
    92    0.000029887101
    93    0.000027894988
    94    0.223134461337
    95    0.313053981903
    96    0.009716851475
    97   -0.002769449133
    98    0.000592482492
    99   -0.001132870996
   100    0.001138156056
   101    0.001128151899
   102    0.000401343695
   103   -0.000349831288
   104   -0.000435227601
   105   -0.000160509085
   106    0.000157392233
   107    0.000163032322
   108   -0.000003181168
   109   -0.000154426568
   110    0.000158407680
   111   -0.000002195267
   112   -0.000161347741
   113   -0.000017864627
   114    0.000159195554
   115   -0.000132899698
   116   -0.000013538367
   117    0.000116060238
   118    0.000034062536
   119    0.000027024059
   120   -0.000022602224
   121   -0.000004048266
   122   -0.000009151173
   123   -0.000021913427
   124   -0.000025145486
Sym=        a    
Ene=    -15.74995
Spin=       Alpha
Occup=    2.00000
     1   -0.121502705862
     2   -0.170453043787
     3   -0.006282933387
     4    0.005170469008
     5   -0.000397046874
     6    0.000609041219
     7    0.000726209304
     8    0.000629627746
     9   -0.002792644617
    10   -0.000008737652
    11   -0.002157967528
    12    0.000004861767
    13   -0.000067442901
    14   -0.000011965153
    15    0.000029828664
    16    0.000044859738
    17   -0.000124521933
    18    0.000093800927
    19   -0.000086498598
    20    0.000233591286
    21    0.001371959809
    22   -0.000089255240
    23    0.000758592611
    24    0.000237586258
    25    0.000044566495
    26   -0.000171849316
    27    0.000009567331
    28   -0.000243135194
    29   -0.000042189807
    30   -0.000084592964
    31   -0.000076593117
    32   -0.070865096075
    33   -0.099414927282
    34   -0.003640808445
    35    0.002912406334
    36   -0.000246727706
    37   -0.000446385358
    38   -0.000338829305
    39    0.000358109900
    40   -0.000785391181
    41    0.001958785804
    42   -0.001581505425
    43    0.000050907427
    44   -0.000020286660
    45    0.000005234883
    46    0.000037059360
    47    0.000098074091
    48   -0.000071156813
    49   -0.000090746938
    50   -0.000073916389
    51    0.000309787146
    52    0.000273986376
    53   -0.001185347677
    54   -0.000740381156
    55   -0.000076610377
    56    0.000024650684
    57   -0.000007421689
    58    0.000181162727
    59    0.000243896552
    60   -0.000019570651
    61   -0.000042895391
    62   -0.000112246294
    63    0.376306370629
    64    0.527902748609
    65    0.019643482784
    66   -0.016388978502
    67    0.001325501244
    68    0.002048046482
    69   -0.002033820084
    70    0.002065695332
    71   -0.005551321998
    72    0.005218106625
    73   -0.004907856613
    74   -0.000064051717
    75    0.000068180024
    76   -0.000077544081
    77    0.000020442101
    78    0.000179627860
    79   -0.000191730682
    80   -0.000005409629
    81   -0.000154323080
    82    0.000159542851
    83   -0.001574433620
    84    0.001408952304
    85   -0.000084825353
    86    0.001742198696
    87    0.000143904203
    88   -0.000059500762
    89    0.000041396305
    90   -0.000024759144
    91    0.000107443612
    92    0.000129800299
    93    0.000144462899
    94   -0.201182807618
    95   -0.282231507018
    96   -0.010423168584
    97    0.008492158874
    98   -0.000722131727
    99    0.001055259855
   100   -0.001068932926
   101   -0.001145720285
   102   -0.003567094146
   103    0.003325745343
   104    0.001186874435
   105   -0.000007532017
   106    0.000011715306
   107    0.000060118407
   108   -0.000085109994
   109    0.000132891633
   110   -0.000148530892
   111    0.000008554797
   112    0.000002338836
   113   -0.000705577109
   114   -0.000480072039
   115    0.000350572789
   116    0.000063158987
   117   -0.001617767436
   118   -0.000077912385
   119    0.000105725644
   120   -0.000123240505
   121    0.000021782568
   122   -0.000056053320
   123    0.000173936561
   124    0.000187026237
Sym=        a    
Ene=    -15.74994
Spin=       Alpha
Occup=    2.00000
     1    0.367441789806
     2    0.515467804758
     3    0.019124519319
     4   -0.015797383082
     5    0.001293934430
     6   -0.002014467261
     7   -0.001991689617
     8   -0.001980631576
     9    0.004558026860
    10    0.005521355483
    11    0.005013798200
    12    0.000075870638
    13    0.000051267416
    14    0.000064796577
    15   -0.000000755235
    16    0.000199926968
    17    0.000142269582
    18    0.000031136905
    19    0.000171490051
    20    0.000023485344
    21   -0.001276778042
    22   -0.001772641641
    23    0.000270483905
    24   -0.001519341915
    25   -0.000141772116
    26    0.000051265296
    27    0.000111883895
    28   -0.000084052555
    29    0.000104605998
    30   -0.000136042648
    31    0.000077789398
    32   -0.126747071894
    33   -0.177807595281
    34   -0.006558360843
    35    0.005263088008
    36   -0.000473053595
    37   -0.000672678323
    38   -0.000637384870
    39    0.000750501579
    40    0.001943875362
    41    0.002906916066
    42   -0.000156060588
    43    0.000006654295
    44   -0.000020824846
    45   -0.000047233567
    46   -0.000088909291
    47    0.000136182514
    48    0.000078397716
    49   -0.000032108315
    50    0.000036060189
    51   -0.000714351343
    52    0.000145306965
    53   -0.000355567853
    54   -0.000266538247
    55    0.001324559495
    56    0.000050395264
    57   -0.000168043889
    58   -0.000104166469
    59    0.000083679226
    60   -0.000035224317
    61   -0.000192829854
    62    0.000135092351
    63   -0.024971629835
    64   -0.035032942399
    65   -0.001285836775
    66    0.001091607227
    67   -0.000054563424
    68   -0.000108216088
    69    0.000202551439
    70   -0.000089738997
    71    0.000999179088
    72    0.001411586866
    73    0.001448793465
    74   -0.000006624698
    75   -0.000054760633
    76   -0.000013866754
    77    0.000062022791
    78    0.000095463522
    79    0.000051122633
    80    0.000078706729
    81    0.000080049583
    82    0.000507071728
    83    0.001030035312
    84    0.000239635174
    85    0.000646684791
    86    0.000489510565
    87   -0.000007367187
    88    0.000199444974
    89   -0.000040108365
    90    0.000208649049
    91   -0.000007654018
    92    0.000148467571
    93    0.000016282648
    94   -0.223975391059
    95   -0.314205771512
    96   -0.011629383587
    97    0.009539786314
    98   -0.000787079729
    99    0.001269996447
   100   -0.001181659867
   101   -0.001193010447
   102   -0.001628291647
   103    0.003999632546
   104    0.003470368731
   105   -0.000070369033
   106    0.000010759572
   107    0.000027093003
   108    0.000025031441
   109    0.000162336644
   110   -0.000018146848
   111   -0.000078104696
   112    0.000134011782
   113    0.000190203623
   114   -0.000416868889
   115    0.001667144727
   116   -0.000647313604
   117   -0.000672722675
   118   -0.000086917253
   119   -0.000018604988
   120    0.000176126399
   121   -0.000210860867
   122   -0.000063664418
   123    0.000093929245
   124   -0.000039738484
Sym=        a    
Ene=    -15.74992
Spin=       Alpha
Occup=    2.00000
     1   -0.029653564563
     2   -0.041597726465
     3   -0.001573939357
     4    0.001302650323
     5   -0.000132281273
     6    0.000117785361
     7    0.000150705216
     8    0.000226877411
     9   -0.001641738293
    10   -0.000820774731
    11    0.001239271222
    12    0.000026410149
    13    0.000008034930
    14   -0.000037576229
    15   -0.000092008619
    16   -0.000040856318
    17   -0.000092317008
    18    0.000026710363
    19    0.000088026462
    20   -0.000758745823
    21   -0.000105646221
    22   -0.000550244939
    23    0.000217838022
    24    0.001009399079
    25    0.000006457979
    26    0.000139750571
    27    0.000198832764
    28   -0.000074724429
    29   -0.000001377092
    30    0.000125170179
    31   -0.000168504999
    32    0.366372801882
    33    0.513970307460
    34    0.018982390070
    35   -0.015490292606
    36    0.001267113693
    37    0.001963432823
    38    0.002002437986
    39   -0.001978981943
    40   -0.005103047721
    41   -0.004290667544
    42    0.005384482600
    43   -0.000054996305
    44   -0.000077493850
    45    0.000052850680
    46   -0.000020541990
    47   -0.000132726519
    48   -0.000184815306
    49   -0.000027582571
    50    0.000194457276
    51   -0.000206323786
    52    0.001839154795
    53    0.001400153982
    54   -0.000213356953
    55   -0.001257595104
    56   -0.000136094424
    57   -0.000157508114
    58   -0.000099791381
    59    0.000073132607
    60    0.000106593733
    61    0.000049799686
    62   -0.000093182071
    63   -0.073076279609
    64   -0.102514615917
    65   -0.003842347847
    66    0.003268615304
    67   -0.000248786089
    68   -0.000464064788
    69    0.000385978434
    70   -0.000348805375
    71   -0.000547777435
    72   -0.001322885186
    73    0.002373891420
    74    0.000054931539
    75   -0.000009723432
    76   -0.000009158498
    77    0.000074718908
    78   -0.000051126231
    79   -0.000065744410
    80   -0.000062260152
    81    0.000114966401
    82    0.000615613958
    83    0.000171231618
    84   -0.001170655577
    85   -0.000504245398
    86    0.000391176179
    87   -0.000026997819
    88    0.000092060992
    89   -0.000222215300
    90   -0.000166173280
    91   -0.000022002627
    92    0.000033809370
    93    0.000137946867
    94   -0.247829733599
    95   -0.347669007637
    96   -0.012923397049
    97    0.010749902709
    98   -0.000849244932
    99    0.001325610440
   100   -0.001403003529
   101   -0.001312412547
   102   -0.003988335699
   103    0.002121538723
   104    0.004189542279
   105   -0.000035959619
   106    0.000085136405
   107    0.000033054985
   108    0.000044149728
   109    0.000032555708
   110   -0.000148921698
   111    0.000061930261
   112    0.000162608822
   113    0.000346880849
   114   -0.001742976287
   115    0.000744091307
   116    0.000499914099
   117   -0.000632996776
   118   -0.000093248573
   119   -0.000202327997
   120    0.000071575736
   121    0.000165649561
   122   -0.000073078948
   123   -0.000040666706
   124    0.000062690533
Sym=        a    
Ene=     -1.65309
Spin=       Alpha
Occup=    2.00000
     1   -0.045753160594
     2   -0.105596184099
     3    0.149058255726
     4    0.178961877167
     5    0.018322711392
     6   -0.048879476422
     7   -0.048810971531
     8   -0.048923380878
     9   -0.041741596810
    10   -0.041825082581
    11   -0.041649267972
    12   -0.002667015981
    13   -0.002675603368
    14   -0.002656334696
    15   -0.000001832233
    16    0.004628930513
    17    0.004567720661
    18    0.000001912004
    19    0.004508595576
    20   -0.000115315775
    21    0.010457732740
    22    0.010430433601
    23   -0.000064158033
    24    0.010404811256
    25    0.002119744578
    26   -0.001285031037
    27   -0.001237116230
    28   -0.000015954502
    29   -0.001025320726
    30    0.001609143101
    31   -0.001573349342
    32   -0.045444564897
    33   -0.104884867141
    34    0.148173409804
    35    0.177576882623
    36    0.018422663875
    37    0.048116024526
    38    0.048440987997
    39   -0.049100193556
    40    0.041072648763
    41    0.041286245704
    42   -0.041778066485
    43    0.002661645126
    44    0.002713652349
    45   -0.002703522306
    46    0.000074636885
    47   -0.004586781645
    48   -0.004606211274
    49   -0.000044169098
    50    0.004459604631
    51    0.000112995830
    52   -0.010367921743
    53   -0.010405766723
    54   -0.000068428640
    55    0.010181149629
    56    0.002067520699
    57    0.001289526590
    58    0.001283460885
    59    0.000005999779
    60   -0.001034019078
    61   -0.001616199419
    62    0.001553736946
    63   -0.046061422581
    64   -0.106306321430
    65    0.149928166346
    66    0.180389119719
    67    0.018207353633
    68    0.049625555490
    69   -0.048617601152
    70    0.049288822793
    71    0.042424588722
    72   -0.041700110911
    73    0.042202033337
    74    0.002668431699
    75   -0.002627056064
    76    0.002616058062
    77   -0.000002616759
    78    0.004675278357
    79   -0.004525841279
    80    0.000088309558
    81   -0.004544622036
    82   -0.000004781115
    83    0.010687643960
    84   -0.010458002827
    85    0.000137262015
    86   -0.010495653086
    87   -0.002107584763
    88    0.001279253029
    89   -0.001252664226
    90    0.000063739916
    91   -0.001012767368
    92   -0.001604568366
    93   -0.001625989895
    94   -0.045748997141
    95   -0.105586329826
    96    0.149039199782
    97    0.178964983058
    98    0.018315433256
    99   -0.048865274877
   100    0.049190036674
   101    0.048528548152
   102   -0.041741343591
   103    0.041956739369
   104    0.041520734120
   105   -0.002665646791
   106    0.002716916403
   107    0.002612546902
   108   -0.000078625141
   109   -0.004547882453
   110    0.004565508518
   111   -0.000044916557
   112   -0.004586117662
   113   -0.000122483888
   114   -0.010394334914
   115    0.010430795764
   116   -0.000070125461
   117   -0.010469849014
   118   -0.002114119713
   119   -0.001252729837
   120    0.001200394738
   121   -0.000033469289
   122   -0.001024118278
   123    0.001635905968
   124    0.001606796808
Sym=        a    
Ene=     -1.04440
Spin=       Alpha
Occup=    2.00000
     1   -0.056238440433
     2   -0.131904272716
     3    0.194249230996
     4    0.311923136012
     5    0.096448868444
     6   -0.012211037069
     7    0.076455048939
     8   -0.054483103670
     9   -0.029443150916
    10    0.045217246515
    11   -0.065317168152
    12   -0.003591663028
    13    0.009474716236
    14   -0.009914545767
    15    0.005067738874
    16    0.004954824048
    17   -0.001456327021
    18    0.004546823909
    19   -0.004584189608
    20    0.008564958711
    21    0.016030128599
    22    0.004408442945
    23    0.007635810727
    24   -0.001344504034
    25    0.000300138313
    26   -0.002777893291
    27   -0.001547095123
    28   -0.002068106422
    29    0.000325605847
    30   -0.001455576971
    31   -0.000313856323
    32    0.060191270498
    33    0.141168925078
    34   -0.207959708357
    35   -0.333827663256
    36   -0.103422120915
    37   -0.014499837134
    38    0.072664269693
    39    0.046016505478
    40   -0.032725056353
    41    0.040866329584
    42    0.059859912020
    43   -0.004115585010
    44    0.008769145827
    45    0.008896631033
    46   -0.004427296665
    47    0.004484971650
    48   -0.001817123010
    49   -0.004431078818
    50    0.004095199197
    51   -0.007650895536
    52    0.015825833558
    53    0.004279140723
    54   -0.007471805536
    55    0.000054155147
    56   -0.000339596623
    57   -0.002573448737
    58   -0.001361804297
    59    0.002033298976
    60   -0.000376089541
    61   -0.001243457214
    62   -0.000478501321
    63   -0.033173159409
    64   -0.077807599912
    65    0.114499107667
    66    0.184240838561
    67    0.056740892504
    68    0.066608007731
    69    0.097420972634
    70    0.023407915436
    71    0.067741856907
    72    0.070857152874
    73    0.031154406351
    74    0.010829431444
    75    0.013282691395
    76    0.004476504988
    77    0.002220802307
    78    0.006615524642
    79    0.005308611945
    80    0.008320932986
    81    0.002244113656
    82    0.003736423563
    83    0.016266115816
    84    0.005569017392
    85    0.014148109231
    86   -0.000085948719
    87   -0.000239177689
    88    0.002120250451
    89    0.000151799267
    90    0.003828497595
    91    0.000291593406
    92    0.001829127635
    93   -0.001413028369
    94    0.029697501590
    95    0.069650018167
    96   -0.102470310289
    97   -0.165217823245
    98   -0.050867307670
    99    0.062411842745
   100    0.099211316097
   101   -0.031148915848
   102    0.063146904043
   103    0.073470960816
   104   -0.036667145667
   105    0.010163604320
   106    0.013670021310
   107   -0.005556574001
   108   -0.002933034052
   109    0.006790891714
   110    0.004855903294
   111   -0.008253409640
   112   -0.002575788851
   113   -0.004956763928
   114    0.016249693574
   115    0.005163803029
   116   -0.014001301590
   117   -0.000938498861
   118    0.000119193428
   119    0.002313044228
   120   -0.000107629803
   121   -0.003767421751
   122   -0.000179420496
   123    0.001944539043
   124   -0.001327553286
Sym=        a    
Ene=     -1.04103
Spin=       Alpha
Occup=    2.00000
     1   -0.015944574595
     2   -0.037398709464
     3    0.055043791882
     4    0.088819604389
     5    0.027731678790
     6    0.106068082381
     7   -0.051375966957
     8   -0.050869137697
     9    0.084171822478
    10   -0.048904016507
    11   -0.048796025224
    12    0.015196389716
    13   -0.008140174654
    14   -0.008172409996
    15    0.004520944327
    16   -0.003883106170
    17    0.007407354715
    18   -0.007995939531
    19   -0.003926120969
    20    0.007754502654
    21   -0.005062098736
    22    0.015642732222
    23   -0.013601392271
    24   -0.005235920290
    25   -0.000169388373
    26   -0.000639795687
    27   -0.002732833110
    28    0.003653353666
    29    0.000101667913
    30    0.000722314205
    31    0.002412752220
    32    0.042860754672
    33    0.100530924843
    34   -0.148116119884
    35   -0.238201211030
    36   -0.074742228084
    37    0.083047672484
    38   -0.073469983824
    39   -0.000777059747
    40    0.055521857712
    41   -0.076946952185
    42    0.014317109552
    43    0.010830449542
    44   -0.012463049735
    45    0.001481691710
    46   -0.000217369950
    47   -0.005908673561
    48    0.005393661031
    49    0.007896716122
    50    0.000578505748
    51   -0.000444454313
    52   -0.005448241632
    53    0.015331695984
    54    0.013455774229
    55   -0.004320703246
    56   -0.000495020154
    57    0.000695207323
    58   -0.001473414857
    59   -0.003643513056
    60   -0.000259174316
    61    0.001872681778
    62    0.001239662788
    63    0.042646400872
    64    0.100030032057
    65   -0.147087739348
    66   -0.238025425956
    67   -0.073964304209
    68    0.083346210640
    69   -0.001309659367
    70   -0.074538595336
    71    0.055363791561
    72    0.013835111698
    73   -0.078231252358
    74    0.010885109622
    75    0.001211669004
    76   -0.012527810740
    77   -0.006839569346
    78    0.000480334208
    79    0.005371884796
    80    0.004177784838
    81   -0.005954705482
    82   -0.011702680848
    83   -0.004595123961
    84    0.015314049097
    85    0.007059488087
    86   -0.005496138241
    87   -0.000070189146
    88   -0.002099236198
    89    0.003170694527
    90    0.001886938773
    91   -0.000293759005
    92   -0.000203847678
    93   -0.001865646476
    94   -0.069563199792
    95   -0.163163508165
    96    0.240160815794
    97    0.387416848190
    98    0.120979562048
    99    0.060310746541
   100    0.022476230475
   101    0.021180284282
   102    0.026696999225
   103    0.043464564877
   104    0.042161793210
   105    0.006515889207
   106    0.005775666762
   107    0.005597155311
   108    0.002304232489
   109    0.002572141651
   110    0.003355672613
   111   -0.004211550239
   112    0.002538034646
   113    0.003839067773
   114   -0.004071511799
   115    0.015002593070
   116   -0.007230780366
   117   -0.004206032356
   118   -0.000665468450
   119   -0.000739863955
   120    0.001812107339
   121   -0.001943241558
   122    0.000448486575
   123    0.000966660871
   124   -0.000707276022
Sym=        a    
Ene=     -1.03770
Spin=       Alpha
Occup=    2.00000
     1   -0.056078546917
     2   -0.131540447594
     3    0.193514758605
     4    0.313602416143
     5    0.098899150359
     6   -0.008592820656
     7   -0.052562331346
     8    0.078263445791
     9   -0.027467495882
    10   -0.064573334842
    11    0.046415040263
    12   -0.003448902504
    13   -0.009937246672
    14    0.009564233137
    15   -0.006305132460
    16   -0.004706627323
    17   -0.001627678684
    18   -0.002245671675
    19    0.004594713007
    20   -0.010888278382
    21   -0.001466118049
    22    0.004187049486
    23   -0.003835708207
    24    0.015787177891
    25    0.001195204426
    26    0.002030520615
    27    0.001491675435
    28    0.000968554541
    29    0.000395662471
    30    0.002252607362
    31   -0.001348891946
    32   -0.033553708410
    33   -0.078703392016
    34    0.115873185563
    35    0.187362585785
    36    0.059306504448
    37    0.065377397343
    38    0.022270457643
    39    0.096246124017
    40    0.067287369638
    41    0.030842558833
    42    0.069680354741
    43    0.011119118863
    44    0.004651659600
    45    0.013139993800
    46   -0.008187571735
    47    0.001992994650
    48    0.005137206857
    49    0.002131618141
    50    0.006377602301
    51   -0.014013500065
    52   -0.000603959634
    53    0.005152400040
    54    0.003607311031
    55    0.016085802958
    56    0.001147882484
    57   -0.002232580788
    58   -0.002844305095
    59   -0.001014786595
    60    0.000140292909
    61   -0.001613441637
    62    0.002407624036
    63    0.060152554064
    64    0.141102964306
    65   -0.207512196563
    66   -0.336420569101
    67   -0.105877735288
    68   -0.013135020108
    69    0.045451647945
    70    0.075225127646
    71   -0.032786745739
    72    0.059648000835
    73    0.042173319156
    74   -0.004220916811
    75    0.008913865251
    76    0.008973792258
    77    0.006069201300
    78    0.004188729283
    79   -0.001873089387
    80    0.001610176815
    81    0.004458465046
    82    0.010369761795
    83   -0.000115362577
    84    0.004219039378
    85    0.002610744052
    86    0.015893621928
    87    0.001216485531
    88    0.001851917250
    89   -0.001418073170
    90    0.000697110097
    91   -0.000401241833
    92    0.002110570228
    93    0.001497337982
    94    0.028999143508
    95    0.068025335918
    96   -0.100175207878
    97   -0.161658982452
    98   -0.051203254535
    99    0.062724742291
   100   -0.030178905895
   101    0.101264335206
   102    0.063286055202
   103   -0.035762226717
   104    0.075651864410
   105    0.010489381339
   106   -0.005614611692
   107    0.014053165595
   108    0.008545996353
   109   -0.002668059573
   110    0.004978295196
   111   -0.001642718645
   112    0.006810551865
   113    0.014650932115
   114   -0.001244900371
   115    0.005459530227
   116   -0.002798415715
   117    0.016202099223
   118    0.001018555450
   119   -0.002509952723
   120    0.002944372911
   121   -0.000753109757
   122   -0.000199441122
   123   -0.001746795537
   124   -0.002379704537
Sym=        a    
Ene=     -0.68590
Spin=       Alpha
Occup=    2.00000
     1   -0.022506168780
     2   -0.053710324262
     3    0.093435832467
     4    0.130000578117
     5    0.105888541144
     6    0.114130128643
     7    0.115697391613
     8    0.112565736809
     9    0.100742232703
    10    0.102341450631
    11    0.099150361032
    12    0.038071663546
    13    0.038698395922
    14    0.037449169382
    15    0.000101277417
    16   -0.006759685806
    17   -0.006835790478
    18    0.000057968102
    19   -0.006912898143
    20    0.000328017618
    21   -0.016567260733
    22   -0.016794767289
    23    0.000190509081
    24   -0.017025465856
    25   -0.002659599808
    26    0.001515922156
    27    0.001530107546
    28   -0.000053622316
    29    0.005381628674
    30   -0.002133410207
    31    0.002064150796
    32   -0.022514093732
    33   -0.053730657392
    34    0.093391822010
    35    0.130034020658
    36    0.106364028700
    37   -0.112948726407
    38   -0.113512541224
    39    0.113559760515
    40   -0.099703671694
    41   -0.100160600982
    42    0.100028305317
    43   -0.037566110450
    44   -0.037648882644