[Molden Format]
[Title]
 Molden file created by orca_2mkl for BaseName=./N4

[Atoms] AU
N    1   7          1.2141712962        -0.0000000000         1.1929119035 
N    2   7         -1.3902703010         0.8023367264         0.5821232275 
N    3   7          0.5808227702         0.8023367264        -1.3773978299 
N    4   7         -0.4047237654        -1.6046734527        -0.3976373012 
[GTO]
  1 0
s   8 1.0 
    11420.0000000000         0.4212093071
     1712.0000000000         0.7848615221
      389.3000000000         1.3273975977
      110.0000000000         1.9989872282
       35.5700000000         2.4748758656
       12.5400000000         2.1060076679
        4.6440000000         0.8013747684
        0.5118000000        -0.0037531799
s   8 1.0 
    11420.0000000000        -0.1565041181
     1712.0000000000        -0.2934466844
      389.3000000000        -0.4992401207
      110.0000000000        -0.7752671946
       35.5700000000        -1.0288246585
       12.5400000000        -1.0842399649
        4.6440000000        -0.6722979466
        0.5118000000         0.4472128530
s   1 1.0 
        1.2930000000         0.8641895012
s   1 1.0 
        0.1787000000         0.1958860490
p   3 1.0 
       26.6300000000         3.4325416128
        5.9480000000         3.2969151869
        1.7420000000         2.3120245012
p   1 1.0 
        0.5550000000         0.6828201314
p   1 1.0 
        0.1725000000         0.1584624850
d   1 1.0 
        1.6540000000         6.8771297418
d   1 1.0 
        0.4690000000         0.7577440909
f   1 1.0 
        1.0930000000         6.9645882147

  2 0
s   8 1.0 
    11420.0000000000         0.4212093071
     1712.0000000000         0.7848615221
      389.3000000000         1.3273975977
      110.0000000000         1.9989872282
       35.5700000000         2.4748758656
       12.5400000000         2.1060076679
        4.6440000000         0.8013747684
        0.5118000000        -0.0037531799
s   8 1.0 
    11420.0000000000        -0.1565041181
     1712.0000000000        -0.2934466844
      389.3000000000        -0.4992401207
      110.0000000000        -0.7752671946
       35.5700000000        -1.0288246585
       12.5400000000        -1.0842399649
        4.6440000000        -0.6722979466
        0.5118000000         0.4472128530
s   1 1.0 
        1.2930000000         0.8641895012
s   1 1.0 
        0.1787000000         0.1958860490
p   3 1.0 
       26.6300000000         3.4325416128
        5.9480000000         3.2969151869
        1.7420000000         2.3120245012
p   1 1.0 
        0.5550000000         0.6828201314
p   1 1.0 
        0.1725000000         0.1584624850
d   1 1.0 
        1.6540000000         6.8771297418
d   1 1.0 
        0.4690000000         0.7577440909
f   1 1.0 
        1.0930000000         6.9645882147

  3 0
s   8 1.0 
    11420.0000000000         0.4212093071
     1712.0000000000         0.7848615221
      389.3000000000         1.3273975977
      110.0000000000         1.9989872282
       35.5700000000         2.4748758656
       12.5400000000         2.1060076679
        4.6440000000         0.8013747684
        0.5118000000        -0.0037531799
s   8 1.0 
    11420.0000000000        -0.1565041181
     1712.0000000000        -0.2934466844
      389.3000000000        -0.4992401207
      110.0000000000        -0.7752671946
       35.5700000000        -1.0288246585
       12.5400000000        -1.0842399649
        4.6440000000        -0.6722979466
        0.5118000000         0.4472128530
s   1 1.0 
        1.2930000000         0.8641895012
s   1 1.0 
        0.1787000000         0.1958860490
p   3 1.0 
       26.6300000000         3.4325416128
        5.9480000000         3.2969151869
        1.7420000000         2.3120245012
p   1 1.0 
        0.5550000000         0.6828201314
p   1 1.0 
        0.1725000000         0.1584624850
d   1 1.0 
        1.6540000000         6.8771297418
d   1 1.0 
        0.4690000000         0.7577440909
f   1 1.0 
        1.0930000000         6.9645882147

  4 0
s   8 1.0 
    11420.0000000000         0.4212093071
     1712.0000000000         0.7848615221
      389.3000000000         1.3273975977
      110.0000000000         1.9989872282
       35.5700000000         2.4748758656
       12.5400000000         2.1060076679
        4.6440000000         0.8013747684
        0.5118000000        -0.0037531799
s   8 1.0 
    11420.0000000000        -0.1565041181
     1712.0000000000        -0.2934466844
      389.3000000000        -0.4992401207
      110.0000000000        -0.7752671946
       35.5700000000        -1.0288246585
       12.5400000000        -1.0842399649
        4.6440000000        -0.6722979466
        0.5118000000         0.4472128530
s   1 1.0 
        1.2930000000         0.8641895012
s   1 1.0 
        0.1787000000         0.1958860490
p   3 1.0 
       26.6300000000         3.4325416128
        5.9480000000         3.2969151869
        1.7420000000         2.3120245012
p   1 1.0 
        0.5550000000         0.6828201314
p   1 1.0 
        0.1725000000         0.1584624850
d   1 1.0 
        1.6540000000         6.8771297418
d   1 1.0 
        0.4690000000         0.7577440909
f   1 1.0 
        1.0930000000         6.9645882147

[5D]
[9G]
[MO]
 Sym=     1a
 Ene= -1.57508762319832E+01
 Spin= Alpha
 Occup= 2.000000
  1      -0.491873223047
  2      -0.000594805348
  3      -0.020539696097
  4      -0.000781831262
  5       0.001243332879
  6      -0.000000144468
  7       0.001241303802
  8      -0.000308121264
  9      -0.000002890051
 10      -0.000259485944
 11       0.000207060283
 12      -0.000000635356
 13       0.000214130488
 14      -0.000072330224
 15      -0.000219407537
 16       0.000003550303
 17      -0.000104672281
 18      -0.000002564137
 19       0.000004448298
 20       0.000063318438
 21       0.000005374958
 22       0.000039193887
 23      -0.000002866635
 24       0.000008848551
 25      -0.000025129244
 26      -0.000001323598
 27      -0.000028648126
 28       0.000000515978
 29       0.000012173734
 30       0.000000915401
 31      -0.465970749095
 32      -0.000639487675
 33      -0.019414044249
 34      -0.000834457163
 35      -0.001339196397
 36       0.000778242342
 37       0.000569615393
 38       0.000219203362
 39      -0.000145747700
 40      -0.000083260386
 41      -0.000274287190
 42       0.000154565487
 43       0.000117180021
 44       0.000076482108
 45       0.000123663846
 46      -0.000068550099
 47      -0.000093700174
 48       0.000160755349
 49      -0.000011319937
 50      -0.000005418340
 51       0.000011088735
 52       0.000000406247
 53      -0.000020946787
 54       0.000014139130
 55      -0.000009053588
 56       0.000002332468
 57      -0.000008949784
 58       0.000019057438
 59       0.000005453168
 60       0.000020320075
 61      -0.511616031881
 62      -0.000559692346
 63      -0.021399651279
 64      -0.000741154608
 65       0.000622232409
 66       0.000867085489
 67      -0.001498528081
 68      -0.000186339792
 69      -0.000224728270
 70       0.000405659206
 71       0.000087972571
 72       0.000128911325
 73      -0.000218789696
 74      -0.000130451859
 75       0.000118502265
 76       0.000174565351
 77       0.000026150057
 78      -0.000071493854
 79       0.000055560327
 80      -0.000062096351
 81      -0.000069696355
 82      -0.000004801561
 83       0.000029517420
 84       0.000007202350
 85      -0.000024184806
 86      -0.000031514825
 87      -0.000005507050
 88       0.000022973495
 89      -0.000005303298
 90       0.000002935976
 91      -0.485756846362
 92      -0.000605819560
 93      -0.020275239069
 94      -0.000794998579
 95      -0.000409859418
 96      -0.001633972132
 97      -0.000407051783
 98       0.000061919625
 99       0.000351706643
100       0.000109996851
101      -0.000078336919
102      -0.000289326122
103      -0.000067369994
104       0.000104987416
105      -0.000024566553
106      -0.000091258654
107       0.000181500706
108      -0.000103140698
109      -0.000025024846
110       0.000004867506
111       0.000039058358
112      -0.000046759848
113       0.000007216187
114      -0.000015123090
115      -0.000004203669
116      -0.000015492241
117      -0.000020360189
118       0.000008339621
119       0.000012867123
120       0.000022800953
 Sym=     1a
 Ene= -1.57499676912495E+01
 Spin= Alpha
 Occup= 2.000000
  1       0.283814964909
  2      -0.000551626872
  3       0.012241356042
  4      -0.000654690294
  5      -0.000771220433
  6       0.000004180911
  7      -0.000772857661
  8       0.000473945638
  9      -0.000660187307
 10       0.001501699839
 11       0.000165449986
 12      -0.000186580488
 13       0.000454858456
 14      -0.000133857744
 15       0.000073020309
 16       0.000131915227
 17       0.000062649570
 18       0.000057340273
 19      -0.000623629273
 20      -0.000355572710
 21       0.000443311391
 22      -0.000078693997
 23       0.000202259902
 24       0.000153005266
 25       0.000127025821
 26      -0.000135160229
 27       0.000007893372
 28      -0.000113557849
 29      -0.000008147470
 30       0.000035313942
 31       0.152685883857
 32      -0.000271497043
 33       0.006575683130
 34      -0.000318460452
 35       0.000476160887
 36      -0.000269157217
 37      -0.000208625168
 38      -0.000722478626
 39      -0.000395816678
 40       0.000929521695
 41      -0.000216225718
 42      -0.000106625171
 43       0.000273001343
 44      -0.000110601795
 45       0.000129397861
 46       0.000056405423
 47      -0.000066482557
 48      -0.000104410645
 49      -0.000261990250
 50       0.000629410005
 51       0.000076539326
 52      -0.000370626583
 53      -0.000123952737
 54      -0.000034907820
 55      -0.000158315140
 56       0.000034078245
 57       0.000199003437
 58       0.000001612117
 59       0.000102655518
 60       0.000003180877
 61      -0.817081811846
 62       0.001683234075
 63      -0.035326136357
 64       0.002018125528
 65       0.001077945347
 66       0.001499568143
 67      -0.002583610081
 68      -0.001339446311
 69      -0.002138476625
 70       0.003308317166
 71      -0.000437880479
 72      -0.000686336141
 73       0.001070169646
 74      -0.000099364938
 75       0.000097264166
 76       0.000094435657
 77      -0.000012415255
 78      -0.000029492742
 79       0.000665776850
 80      -0.000644060693
 81      -0.001041241851
 82      -0.000230121441
 83       0.000466261943
 84       0.000003053837
 85      -0.000047397348
 86      -0.000128312648
 87      -0.000028788997
 88       0.000098567359
 89      -0.000082862251
 90      -0.000036486856
 91       0.426879224290
 92      -0.000812691601
 93       0.018423002101
 94      -0.000964111057
 95       0.000391993919
 96       0.001557506245
 97       0.000379409440
 98      -0.000650324408
 99      -0.002144024500
100       0.000374004056
101      -0.000200436313
102      -0.000669174920
103       0.000096808161
104      -0.000012472244
105       0.000079094801
106       0.000193183633
107      -0.000017937807
108      -0.000024168851
109       0.000410663016
110       0.000165904978
111       0.000266177219
112       0.000697220148
113      -0.000489966741
114      -0.000086211031
115       0.000033138533
116       0.000098507926
117      -0.000085395890
118       0.000102459505
119      -0.000152683895
120      -0.000097600208
 Sym=     1a
 Ene= -1.57499491820562E+01
 Spin= Alpha
 Occup= 2.000000
  1      -0.786299794604
  2       0.001575989424
  3      -0.033974339945
  4       0.001884352675
  5       0.002164073969
  6       0.000002896237
  7       0.002147917771
  8      -0.002892869324
  9      -0.000342755781
 10      -0.002692874232
 11      -0.000926895177
 12      -0.000097855600
 13      -0.000865645530
 14      -0.000075307677
 15      -0.000126922643
 16       0.000055141746
 17      -0.000074517112
 18       0.000042330217
 19       0.000227481231
 20       0.001263831265
 21       0.000185101061
 22       0.000603172411
 23       0.000151709771
 24       0.000081380498
 25      -0.000098182829
 26      -0.000012222012
 27      -0.000117927132
 28      -0.000102539295
 29       0.000032142306
 30      -0.000006323529
 31       0.224191565909
 32      -0.000410946123
 33       0.009676584944
 34      -0.000487176129
 35       0.000712230453
 36      -0.000404384844
 37      -0.000289820665
 38      -0.001432555126
 39       0.000043263680
 40      -0.000293299610
 41      -0.000435457361
 42       0.000026460480
 43      -0.000078325713
 44       0.000012042282
 45      -0.000125146972
 46       0.000095701050
 47      -0.000141538947
 48      -0.000029718597
 49       0.000240292774
 50      -0.000165462307
 51       0.000181552635
 52      -0.000707203710
 53       0.000265335658
 54       0.000084492524
 55       0.000096353246
 56      -0.000022182896
 57      -0.000002932744
 58       0.000084202516
 59       0.000168354262
 60      -0.000158926873
 61       0.046696023075
 62      -0.000099574209
 63       0.002010534514
 64      -0.000119705786
 65      -0.000055141886
 66      -0.000080491969
 67       0.000147566714
 68      -0.000724850046
 69      -0.000255465967
 70      -0.000739836462
 71      -0.000200860272
 72      -0.000070421560
 73      -0.000216383050
 74      -0.000152443818
 75      -0.000135721510
 76       0.000012120905
 77      -0.000038838968
 78       0.000082465178
 79      -0.000574618060
 80      -0.000400804990
 81       0.000107019400
 82      -0.000112360974
 83       0.000257358677
 84      -0.000185993453
 85      -0.000090653848
 86       0.000134897707
 87       0.000003773040
 88       0.000101764037
 89      -0.000064714479
 90      -0.000018962756
 91       0.532011403945
 92      -0.001046613428
 93       0.022976566583
 94      -0.001249643703
 95       0.000493644026
 96       0.001940066216
 97       0.000487736420
 98      -0.001253129489
 99      -0.002230053553
100      -0.001052346063
101      -0.000378396809
102      -0.000719053581
103      -0.000321761725
104      -0.000084767720
105      -0.000094534497
106      -0.000011401694
107      -0.000150672769
108      -0.000052354126
109       0.000263225524
110      -0.000444393224
111      -0.000552592067
112       0.000431418800
113      -0.000698404341
114       0.000102194392
115      -0.000034662002
116      -0.000018173773
117       0.000019336446
118      -0.000168910571
119      -0.000142038557
120       0.000035420236
 Sym=     1a
 Ene= -1.57499212285622E+01
 Spin= Alpha
 Occup= 2.000000
  1      -0.117225813629
  2       0.000244937270
  3      -0.005081873232
  4       0.000296360325
  5       0.000333962130
  6      -0.000008768966
  7       0.000319059567
  8      -0.000934478659
  9       0.000712083494
 10       0.000075660364
 11      -0.000289786343
 12       0.000206586169
 13       0.000004279975
 14      -0.000105250048
 15      -0.000049000616
 16      -0.000061639731
 17       0.000099614104
 18      -0.000137486460
 19      -0.000302978650
 20       0.000100145632
 21      -0.000227324273
 22       0.000479084888
 23      -0.000478386935
 24       0.000053781080
 25       0.000119898602
 26      -0.000002910606
 27      -0.000080497555
 28       0.000130118319
 29       0.000127872428
 30      -0.000149869649
 31       0.814751722970
 32      -0.001576016035
 33       0.035169929919
 34      -0.001878253815
 35       0.002554939897
 36      -0.001485633660
 37      -0.001082858894
 38      -0.003090433231
 39       0.002152355062
 40       0.001449235154
 41      -0.000987414016
 42       0.000673222983
 43       0.000456513448
 44      -0.000043141772
 45      -0.000079565025
 46       0.000016856441
 47       0.000121209572
 48      -0.000098959923
 49       0.000502447428
 50       0.000708112965
 51      -0.000508947084
 52      -0.000347443868
 53       0.001001718157
 54      -0.000115644870
 55       0.000009892392
 56      -0.000065433206
 57      -0.000007333409
 58      -0.000118298089
 59      -0.000042256718
 60      -0.000090106065
 61      -0.151394546121
 62       0.000336015924
 63      -0.006559192440
 64       0.000408190417
 65       0.000205898946
 66       0.000271418548
 67      -0.000484423842
 68      -0.000827481459
 69       0.000433060333
 70       0.000892509724
 71      -0.000248721545
 72       0.000106960172
 73       0.000287892686
 74       0.000030109904
 75      -0.000112861385
 76       0.000099001777
 77       0.000138671301
 78      -0.000069654074
 79       0.000303445764
 80      -0.000571075999
 81       0.000092027504
 82       0.000442854367
 83      -0.000122622536
 84       0.000016939390
 85      -0.000160139836
 86      -0.000016602081
 87       0.000191671692
 88      -0.000022236796
 89       0.000109185119
 90       0.000035756377
 91      -0.503266987453
 92       0.001038471655
 93      -0.021757905259
 94       0.001248903644
 95      -0.000455014227
 96      -0.001843664676
 97      -0.000461111504
 98      -0.000159988697
 99       0.002549682075
100       0.000854879909
101      -0.000019699355
102       0.000822496272
103       0.000267645107
104       0.000019765033
105      -0.000060813034
106       0.000033987685
107       0.000039495494
108      -0.000183865649
109      -0.000452688417
110      -0.000082712088
111       0.000599311222
112      -0.000782135795
113      -0.000147013739
114      -0.000120973157
115       0.000022273317
116      -0.000066535682
117      -0.000124156138
118      -0.000071296509
119      -0.000099867219
120       0.000111264776
 Sym=     1a
 Ene= -1.65347264090052E+00
 Spin= Alpha
 Occup= 2.000000
  1      -0.008528141633
  2       0.227229816931
  3       0.053806038791
  4       0.061128418203
  5      -0.045139289350
  6       0.000007587084
  7      -0.045478963330
  8      -0.062764166522
  9       0.000006662105
 10      -0.063001750929
 11      -0.010876959471
 12       0.000000690251
 13      -0.010854958377
 14       0.002049614365
 15       0.006886167514
 16      -0.000045816120
 17       0.003406874372
 18       0.000042436780
 19       0.004120794922
 20       0.014313306528
 21      -0.000063874043
 22       0.007162283116
 23       0.000061419983
 24       0.000481235546
 25      -0.001858721489
 26       0.000767232100
 27      -0.001930724832
 28      -0.000894634077
 29       0.000781042327
 30      -0.000869225420
 31      -0.008457409936
 32       0.225726118244
 33       0.053483050193
 34       0.060703202573
 35       0.051654276954
 36      -0.029942044943
 37      -0.022096852100
 38       0.071709194569
 39      -0.041557590095
 40      -0.030586105955
 41       0.012377583167
 42      -0.007164637659
 43      -0.005252644242
 44      -0.002554728037
 45      -0.003891241250
 46       0.002232583525
 47       0.002980793387
 48      -0.005216185338
 49      -0.005313160430
 50      -0.007989877633
 51       0.004588662659
 52       0.006211964545
 53      -0.010819761227
 54       0.001578797691
 55       0.000143644762
 56       0.001238203617
 57      -0.000209964404
 58       0.001380015918
 59      -0.000437406326
 60       0.001964217522
 61      -0.008596513120
 62       0.228736312013
 63       0.054126993754
 64       0.061571336121
 65      -0.021672420325
 66      -0.030466647044
 67       0.052533568876
 68      -0.030168717325
 69      -0.042288412280
 70       0.072901034357
 71      -0.005247732022
 72      -0.007327179182
 73       0.012617121958
 74       0.003956992692
 75      -0.003755224592
 76      -0.005339125855
 77      -0.000730172294
 78       0.002201119828
 79       0.008213810379
 80      -0.007912652908
 81      -0.011126836404
 82      -0.001525673040
 83       0.004631058978
 84       0.000271855064
 85      -0.001050924356
 86      -0.002318805184
 87       0.000374232584
 88       0.001358519066
 89      -0.001122164788
 90      -0.000694862172
 91      -0.008525920748
 92       0.227211845008
 93       0.053801038476
 94       0.061132856331
 95       0.015305834292
 96       0.060401867032
 97       0.014890874931
 98       0.021211005989
 99       0.083837322837
100       0.020703278505
101       0.003663370194
102       0.014490324093
103       0.003581639199
104      -0.003355304294
105       0.000764173423
106       0.003016852733
107      -0.005711597288
108       0.003101245094
109      -0.006953657723
110       0.001589538745
111       0.006282901124
112      -0.011888879626
113       0.006438619028
114      -0.001729550213
115       0.000570864803
116      -0.001193921388
117      -0.000552839930
118       0.000009712851
119       0.001726638609
120       0.001460319872
 Sym=     1a
 Ene= -1.04470628156020E+00
 Spin= Alpha
 Occup= 2.000000
  1       0.001498882180
  2       0.306413120468
  3       0.077824903213
  4       0.214784490030
  5       0.052704903259
  6       0.014249701849
  7      -0.045955245344
  8       0.058696583832
  9       0.019292453130
 10      -0.075309289895
 11       0.006345831087
 12       0.004888989816
 13      -0.028232349345
 14       0.007976420424
 15      -0.000612115172
 16      -0.002483946661
 17      -0.004613332702
 18      -0.000187273507
 19       0.018205378544
 20       0.004634736603
 21      -0.005606331885
 22      -0.006407362795
 23       0.000143521818
 24      -0.002579198739
 25      -0.002471225646
 26       0.001489613590
 27       0.000895197998
 28       0.000117180796
 29      -0.001133469891
 30      -0.000248248334
 31      -0.001605407573
 32      -0.327990216331
 33      -0.083312661477
 34      -0.230069938138
 35       0.042300932465
 36       0.045252906229
 37       0.022022751657
 38       0.041594312411
 39       0.070805564339
 40       0.036735956071
 41      -0.000151417240
 42       0.024552285724
 43       0.014174944590
 44      -0.000947370887
 45       0.000956492040
 46      -0.003715355127
 47       0.007687307446
 48       0.001625824971
 49       0.001003720180
 50       0.005773800491
 51      -0.009935823033
 52       0.013290831741
 53       0.007969984962
 54      -0.001203199559
 55      -0.001136812824
 56      -0.000522581024
 57      -0.001389707808
 58      -0.001602198817
 59      -0.002568753906
 60       0.000798528627
 61       0.000896193077
 62       0.180706298889
 63       0.045875753943
 64       0.126717862332
 65       0.085534811233
 66      -0.003741124246
 67       0.029869631882
 68       0.112556994225
 69      -0.010190676560
 70       0.049323229123
 71       0.026450884301
 72      -0.006105743382
 73       0.018647282828
 74       0.006121365098
 75       0.008934646298
 76      -0.002558731884
 77      -0.002928894112
 78      -0.003862825120
 79       0.014773595655
 80       0.017064105701
 81      -0.008094766733
 82      -0.005923809012
 83      -0.006244857032
 84       0.002797631618
 85       0.002338349870
 86      -0.002316650509
 87      -0.001805474195
 88      -0.001867497939
 89      -0.000024966015
 90      -0.000991717716
 91      -0.000817526058
 92      -0.161751791644
 93      -0.041047422133
 94      -0.113682741050
 95       0.089331784968
 96      -0.017309060925
 97      -0.008669236043
 98       0.119181166818
 99      -0.032770549538
100      -0.014087649953
101       0.029100038020
102      -0.014740182103
103      -0.005189844891
104       0.000562609689
105       0.003756793142
106      -0.002310966984
107       0.004165493595
108       0.010598505588
109       0.003321874025
110       0.008080445239
111      -0.006552123219
112       0.010902818883
113       0.020586606122
114       0.000890977736
115      -0.000770867209
116       0.000449442053
117       0.001493039715
118       0.002228620675
119       0.003497799503
120      -0.002435951740
 Sym=     1a
 Ene= -1.04133066668718E+00
 Spin= Alpha
 Occup= 2.000000
  1       0.000454382368
  2       0.086777878392
  3       0.022041013819
  4       0.061271416472
  5       0.001044112665
  6      -0.096727481953
  7       0.001428973098
  8      -0.002235971154
  9      -0.131594093332
 10      -0.001836634038
 11      -0.003004805646
 12      -0.034141352661
 13      -0.003086183317
 14      -0.001034780893
 15       0.000930049030
 16       0.008947304350
 17      -0.001702773406
 18       0.009001570097
 19      -0.002085883902
 20       0.004177589332
 21       0.018612771967
 22      -0.003497910331
 23       0.018731955204
 24       0.000927819043
 25      -0.000402857190
 26      -0.001849958814
 27       0.000185996486
 28      -0.004327659006
 29      -0.000895043341
 30       0.002448123594
 31      -0.001195835138
 32      -0.233603893727
 33      -0.059375095519
 34      -0.164738137193
 35      -0.024591903738
 36      -0.074066925368
 37       0.029914935322
 38      -0.044895598891
 39      -0.094134357117
 40       0.045519411968
 41      -0.019359941640
 42      -0.019902511928
 43       0.015117540236
 44      -0.003578984464
 45       0.004710781716
 46       0.002769389658
 47      -0.007212679039
 48      -0.005399057372
 49      -0.006206417130
 50       0.012465290920
 51       0.004922336039
 52      -0.017022372021
 53      -0.007279173060
 54      -0.000211631323
 55      -0.001855054078
 56       0.000535924180
 57       0.002613576594
 58       0.000666001294
 59       0.003413215722
 60      -0.000129539401
 61      -0.001240607110
 62      -0.232516983124
 63      -0.059019893474
 64      -0.164324915123
 65       0.029865850034
 66      -0.074741209459
 67      -0.025023836491
 68       0.045453578821
 69      -0.095008678450
 70      -0.045553271941
 71       0.015008125156
 72      -0.020165969787
 73      -0.019634587550
 74      -0.004534944511
 75       0.004680858475
 76      -0.005421127809
 77      -0.006792991744
 78       0.002775701157
 79      -0.011767143238
 80       0.012474094825
 81      -0.007354841382
 82      -0.014025818015
 83       0.004947594022
 84      -0.001601878171
 85       0.002137596380
 86       0.000024363589
 87      -0.003606473456
 88       0.000658907444
 89      -0.001458919293
 90      -0.000550233387
 91       0.001982691919
 92       0.379347288267
 93       0.096354401458
 94       0.267801496745
 95       0.032270815365
 96      -0.024038099031
 97       0.031478277242
 98       0.049342275113
 99      -0.011045396600
100       0.048216277012
101       0.016493002792
102       0.011788274695
103       0.016143313917
104       0.002047916673
105       0.003082933984
106       0.003021952433
107       0.003658508910
108       0.003117724315
109       0.000629676196
110       0.007768637948
111       0.009470038324
112       0.001332356971
113       0.009712205423
114      -0.001463767448
115       0.000707876341
116       0.001000224631
117      -0.000150064308
118       0.001437812582
119       0.001259597883
120      -0.001361997610
 Sym=     1a
 Ene= -1.03800411627547E+00
 Spin= Alpha
 Occup= 2.000000
  1       0.001699289634
  2       0.305990364491
  3       0.077726208065
  4       0.217531835334
  5      -0.043970166451
  6       0.013168953640
  7       0.054645843671
  8      -0.073247187777
  9       0.018004699193
 10       0.061135379153
 11      -0.028050103788
 12       0.004789241513
 13       0.007006913329
 14      -0.007935889043
 15      -0.000861097202
 16      -0.000123043490
 17       0.004434702299
 18      -0.002296411726
 19      -0.014855648173
 20       0.004226518824
 21       0.000292210660
 22       0.012501987933
 23      -0.005413800070
 24       0.002351372027
 25       0.002332767612
 26      -0.000091590588
 27      -0.001175491194
 28       0.000101305192
 29       0.001470404951
 30      -0.001418136881
 31       0.001002887153
 32       0.182974671762
 33       0.046500016205
 34       0.130013387534
 35       0.028295736027
 36      -0.003696040145
 37       0.084607899512
 38       0.047705861787
 39      -0.010305646120
 40       0.111385353621
 41       0.018634347229
 42      -0.006233364242
 43       0.026557215503
 44      -0.005553202836
 45       0.008690201287
 46      -0.003739816890
 47       0.003644067677
 48      -0.002462020914
 49      -0.012600072155
 50       0.016692160414
 51      -0.006054050361
 52       0.009658905005
 53      -0.008052388807
 54      -0.001361995529
 55      -0.003186758621
 56       0.001557053245
 57       0.001806061292
 58      -0.001783413308
 59      -0.001082897261
 60       0.001941217578
 61      -0.001824239025
 62      -0.328255007659
 63      -0.083373709344
 64      -0.233195480427
 65       0.021633014003
 66       0.045034324775
 67       0.044631515144
 68       0.036231219980
 69       0.070760396493
 70       0.044369887670
 71       0.013936930112
 72       0.024850324308
 73       0.000600584895
 74       0.007219135505
 75       0.000882739666
 76       0.001543638068
 77       0.003046350718
 78      -0.003706966120
 79       0.011293840502
 80       0.005635906357
 81       0.007843680082
 82       0.007633201897
 83      -0.009928303527
 84       0.002728938198
 85      -0.000428598150
 86      -0.000678438547
 87       0.000707253294
 88      -0.001551483788
 89       0.001791059618
 90       0.000688768878
 91      -0.000852181067
 92      -0.158072194555
 93      -0.040187792412
 94      -0.112070561604
 95      -0.008579790593
 96      -0.016580816259
 97       0.090718470917
 98      -0.013942005395
 99      -0.031590080526
100       0.121207232952
101      -0.005168172319
102      -0.014308196636
103       0.030181859473
104       0.003232956044
105       0.003815804298
106       0.010664190863
107       0.002549622186
108      -0.002324188374
109       0.007592629023
110       0.008211697746
111       0.020917954106
112       0.008190670409
113      -0.006545566061
114      -0.002406083796
115       0.000653740967
116       0.002223182149
117      -0.002751787696
118       0.002265417787
119      -0.001624601526
120      -0.001020776687
 Sym=     1a
 Ene= -6.85707106099221E-01
 Spin= Alpha
 Occup= 2.000000
  1      -0.002450765147
  2      -0.127964644519
  3      -0.037899011747
  4      -0.164148424254