[Molden Format]                                                                 
[ATOMS] AU                                                                      
C        1    6        0.0000000000        0.0000000000        0.0000000000     
H        2    1        1.6813033065        0.0000000000        1.1888609692     
H        3    1       -1.6813033065        0.0000000000        1.1888609692     
H        4    1        0.0000000000       -1.6813033065       -1.1888609692     
H        5    1        0.0000000000        1.6813033065       -1.1888609692     
[Molden Format]                                                                 
[GTO]                                                                           
  1 0
s  11 1.00
   312100.00000000000        5.6699999999999999E-006                            
   46740.000000000000        4.4100000000000001E-005                            
   10640.000000000000        2.3190000000000000E-004                            
   3013.0000000000000        9.7897000000000001E-004                            
   982.79999999999995        3.5516300000000001E-003                            
   354.80000000000001        1.1440610000000000E-002                            
   138.40000000000001        3.2998550000000001E-002                            
   57.350000000000001        8.4053470000000005E-002                            
   24.920000000000002       0.18067612999999999                                 
   11.230000000000000       0.30491140000000000                                 
   5.2009999999999996       0.34141569999999999                                 
s   1 1.00
   2.4260000000000002        1.0000000000000000                                 
s   1 1.00
  0.96730000000000005        1.0000000000000000                                 
s   1 1.00
  0.44560000000000000        1.0000000000000000                                 
s   1 1.00
  0.19710000000000000        1.0000000000000000                                 
s   1 1.00
   8.6349999999999996E-002   1.0000000000000000                                 
d   3 1.00
   46.135374108083106        6.6788294544309193E-002                            
   20.268218225399441       0.23122499388298942                                 
   6.0945916652598555        5.0799591990022650                                 
d   1 1.00
   1.7693044883902429        1.0000000000000000                                 
d   1 1.00
  0.48622668729967589        1.0000000000000000                                 
d   1 1.00
  0.33390123157489604        1.0000000000000000                                 
d   1 1.00
  0.19249575927525764        1.0000000000000000                                 

  2 0
s   8 1.00
   13940.799999999999        3.0100000000000000E-006                            
   3471.4299999999998        5.4399999999999996E-006                            
   1903.1800000000001        1.7850000000000000E-005                            
   623.28599999999994        7.1950000000000001E-005                            
   290.36000000000001        1.2055000000000000E-004                            
   126.58499999999999        5.2526999999999999E-004                            
   44.695500000000003        2.0138399999999998E-003                            
   16.003799999999998        6.8708600000000003E-003                            
s   1 1.00
   6.0805600000000002        1.0000000000000000                                 
s   1 1.00
   2.4762200000000001        1.0000000000000000                                 
s   1 1.00
   1.0757099999999999        1.0000000000000000                                 
s   1 1.00
  0.48968200000000001        1.0000000000000000                                 
s   1 1.00
  0.22978599999999999        1.0000000000000000                                 
s   1 1.00
  0.10996549999999999        1.0000000000000000                                 
s   1 1.00
   5.2323000000000001E-002   1.0000000000000000                                 
d   3 1.00
   3.1324842646299400        6.4545862745101906E-003                            
   1.5153893402149163       -7.0854768532677637E-002                            
  0.90028999344114136       0.22897857323582813                                 
d   1 1.00
  0.50616845104080932        1.0000000000000000                                 
d   1 1.00
  0.35861735452268051        1.0000000000000000                                 
d   1 1.00
   9.4800330788481782E-002   1.0000000000000000                                 

  3 0
s   8 1.00
   13940.799999999999        3.0100000000000000E-006                            
   3471.4299999999998        5.4399999999999996E-006                            
   1903.1800000000001        1.7850000000000000E-005                            
   623.28599999999994        7.1950000000000001E-005                            
   290.36000000000001        1.2055000000000000E-004                            
   126.58499999999999        5.2526999999999999E-004                            
   44.695500000000003        2.0138399999999998E-003                            
   16.003799999999998        6.8708600000000003E-003                            
s   1 1.00
   6.0805600000000002        1.0000000000000000                                 
s   1 1.00
   2.4762200000000001        1.0000000000000000                                 
s   1 1.00
   1.0757099999999999        1.0000000000000000                                 
s   1 1.00
  0.48968200000000001        1.0000000000000000                                 
s   1 1.00
  0.22978599999999999        1.0000000000000000                                 
s   1 1.00
  0.10996549999999999        1.0000000000000000                                 
s   1 1.00
   5.2323000000000001E-002   1.0000000000000000                                 
d   3 1.00
   3.1324842646299400        6.4545862745101906E-003                            
   1.5153893402149163       -7.0854768532677637E-002                            
  0.90028999344114136       0.22897857323582813                                 
d   1 1.00
  0.50616845104080932        1.0000000000000000                                 
d   1 1.00
  0.35861735452268051        1.0000000000000000                                 
d   1 1.00
   9.4800330788481782E-002   1.0000000000000000                                 

  4 0
s   8 1.00
   13940.799999999999        3.0100000000000000E-006                            
   3471.4299999999998        5.4399999999999996E-006                            
   1903.1800000000001        1.7850000000000000E-005                            
   623.28599999999994        7.1950000000000001E-005                            
   290.36000000000001        1.2055000000000000E-004                            
   126.58499999999999        5.2526999999999999E-004                            
   44.695500000000003        2.0138399999999998E-003                            
   16.003799999999998        6.8708600000000003E-003                            
s   1 1.00
   6.0805600000000002        1.0000000000000000                                 
s   1 1.00
   2.4762200000000001        1.0000000000000000                                 
s   1 1.00
   1.0757099999999999        1.0000000000000000                                 
s   1 1.00
  0.48968200000000001        1.0000000000000000                                 
s   1 1.00
  0.22978599999999999        1.0000000000000000                                 
s   1 1.00
  0.10996549999999999        1.0000000000000000                                 
s   1 1.00
   5.2323000000000001E-002   1.0000000000000000                                 
d   3 1.00
   3.1324842646299400        6.4545862745101906E-003                            
   1.5153893402149163       -7.0854768532677637E-002                            
  0.90028999344114136       0.22897857323582813                                 
d   1 1.00
  0.50616845104080932        1.0000000000000000                                 
d   1 1.00
  0.35861735452268051        1.0000000000000000                                 
d   1 1.00
   9.4800330788481782E-002   1.0000000000000000                                 

  5 0
s   8 1.00
   13940.799999999999        3.0100000000000000E-006                            
   3471.4299999999998        5.4399999999999996E-006                            
   1903.1800000000001        1.7850000000000000E-005                            
   623.28599999999994        7.1950000000000001E-005                            
   290.36000000000001        1.2055000000000000E-004                            
   126.58499999999999        5.2526999999999999E-004                            
   44.695500000000003        2.0138399999999998E-003                            
   16.003799999999998        6.8708600000000003E-003                            
s   1 1.00
   6.0805600000000002        1.0000000000000000                                 
s   1 1.00
   2.4762200000000001        1.0000000000000000                                 
s   1 1.00
   1.0757099999999999        1.0000000000000000                                 
s   1 1.00
  0.48968200000000001        1.0000000000000000                                 
s   1 1.00
  0.22978599999999999        1.0000000000000000                                 
s   1 1.00
  0.10996549999999999        1.0000000000000000                                 
s   1 1.00
   5.2323000000000001E-002   1.0000000000000000                                 
d   3 1.00
   3.1324842646299400        6.4545862745101906E-003                            
   1.5153893402149163       -7.0854768532677637E-002                            
  0.90028999344114136       0.22897857323582813                                 
d   1 1.00
  0.50616845104080932        1.0000000000000000                                 
d   1 1.00
  0.35861735452268051        1.0000000000000000                                 
d   1 1.00
   9.4800330788481782E-002   1.0000000000000000                                 

                                                                                
[MO]
 Sym= A
 Ene=  -11.861210854835520     
 Spin= Alpha
 Occup= 1.0
  1        0.8574762947
  2        0.1769122312
  3        0.0133667310
  4        0.0024638220
  5       -0.0036685186
  6        0.0061081546
  7       -0.0000000000
  8        0.0000000000
  9        0.0000000000
 10       -0.0000000000
 11        0.0000000000
 12        0.0000000000
 13        0.0000000000
 14       -0.0000000000
 15       -0.0000000000
 16        0.0000000000
 17       -0.0000000000
 18       -0.0000000000
 19       -0.0000000000
 20        0.0000000000
 21       -0.0000000000
 22       -0.0000000000
 23        0.0000000000
 24        0.0000000000
 25        0.0000000000
 26       -0.0000000000
 27       -0.0000000000
 28        0.0000000000
 29       -0.0000000000
 30       -0.0000000000
 31       -0.0000000000
 32        0.0000000000
 33        0.0000000000
 34       -0.0000000000
 35        0.0000000000
 36       -0.0000000000
 37        0.0000017158
 38        0.0000666554
 39       -0.0002042779
 40        0.0005981786
 41       -0.0005291197
 42        0.0009215460
 43       -0.0017671523
 44       -0.0000069068
 45        0.0000947781
 46       -0.0000947781
 47       -0.0000000000
 48        0.0000000000
 49        0.0002680730
 50       -0.0000000000
 51       -0.0001714279
 52        0.0001714279
 53        0.0000000000
 54       -0.0000000000
 55       -0.0004848713
 56        0.0000000000
 57        0.0000706609
 58       -0.0000706609
 59       -0.0000000000
 60        0.0000000000
 61        0.0001998592
 62       -0.0000000000
 63        0.0000322196
 64       -0.0000322196
 65        0.0000000000
 66       -0.0000000000
 67        0.0000911308
 68        0.0000000000
 69        0.0000017158
 70        0.0000666554
 71       -0.0002042779
 72        0.0005981786
 73       -0.0005291197
 74        0.0009215460
 75       -0.0017671523
 76       -0.0000069068
 77        0.0000947781
 78       -0.0000947781
 79       -0.0000000000
 80       -0.0000000000
 81       -0.0002680730
 82       -0.0000000000
 83       -0.0001714279
 84        0.0001714279
 85        0.0000000000
 86        0.0000000000
 87        0.0004848713
 88        0.0000000000
 89        0.0000706609
 90       -0.0000706609
 91       -0.0000000000
 92       -0.0000000000
 93       -0.0001998592
 94       -0.0000000000
 95        0.0000322196
 96       -0.0000322196
 97        0.0000000000
 98        0.0000000000
 99       -0.0000911308
100        0.0000000000
101        0.0000017158
102        0.0000666554
103       -0.0002042779
104        0.0005981786
105       -0.0005291197
106        0.0009215460
107       -0.0017671523
108       -0.0000069068
109       -0.0000947781
110        0.0000947781
111       -0.0000000000
112        0.0000000000
113        0.0000000000
114        0.0002680730
115        0.0001714279
116       -0.0001714279
117        0.0000000000
118       -0.0000000000
119       -0.0000000000
120       -0.0004848713
121       -0.0000706609
122        0.0000706609
123       -0.0000000000
124        0.0000000000
125        0.0000000000
126        0.0001998592
127       -0.0000322196
128        0.0000322196
129        0.0000000000
130       -0.0000000000
131       -0.0000000000
132        0.0000911308
133        0.0000017158
134        0.0000666554
135       -0.0002042779
136        0.0005981786
137       -0.0005291197
138        0.0009215460
139       -0.0017671523
140       -0.0000069068
141       -0.0000947781
142        0.0000947781
143       -0.0000000000
144       -0.0000000000
145       -0.0000000000
146       -0.0002680730
147        0.0001714279
148       -0.0001714279
149       -0.0000000000
150        0.0000000000
151        0.0000000000
152        0.0004848713
153       -0.0000706609
154        0.0000706609
155        0.0000000000
156       -0.0000000000
157       -0.0000000000
158       -0.0001998592
159       -0.0000322196
160        0.0000322196
161       -0.0000000000
162        0.0000000000
163       -0.0000000000
164       -0.0000911308
 Sym= A
 Ene=  -1.1574841384560015     
 Spin= Alpha
 Occup= 1.0
  1        0.2072643292
  2        0.1857086104
  3       -0.2187090562
  4       -0.3921892123
  5       -0.3089880010
  6        0.0106870678
  7        0.0000000000
  8       -0.0000000000
  9        0.0000000000
 10        0.0000000000
 11       -0.0000000000
 12        0.0000000000
 13       -0.0000000000
 14        0.0000000000
 15       -0.0000000000
 16       -0.0000000000
 17        0.0000000000
 18        0.0000000000
 19        0.0000000000
 20       -0.0000000000
 21        0.0000000000
 22        0.0000000000
 23       -0.0000000000
 24       -0.0000000000
 25       -0.0000000000
 26        0.0000000000
 27       -0.0000000000
 28       -0.0000000000
 29        0.0000000000
 30        0.0000000000
 31        0.0000000000
 32       -0.0000000000
 33        0.0000000000
 34        0.0000000000
 35       -0.0000000000
 36       -0.0000000000
 37       -0.0030388806
 38       -0.0079810194
 39       -0.0127619194
 40       -0.0590752001
 41       -0.0304599610
 42       -0.0306140545
 43       -0.0168166345
 44        0.0008249143
 45       -0.0021106071
 46        0.0021106071
 47        0.0000000000
 48       -0.0000000000
 49       -0.0059696984
 50        0.0000000000
 51        0.0069772305
 52       -0.0069772305
 53       -0.0000000000
 54        0.0000000000
 55        0.0197345879
 56       -0.0000000000
 57       -0.0046930423
 58        0.0046930423
 59        0.0000000000
 60       -0.0000000000
 61       -0.0132739281
 62        0.0000000000
 63        0.0004991056
 64       -0.0004991056
 65       -0.0000000000
 66       -0.0000000000
 67        0.0014116838
 68        0.0000000000
 69       -0.0030388806
 70       -0.0079810194
 71       -0.0127619194
 72       -0.0590752001
 73       -0.0304599610
 74       -0.0306140545
 75       -0.0168166345
 76        0.0008249143
 77       -0.0021106071
 78        0.0021106071
 79        0.0000000000
 80        0.0000000000
 81        0.0059696984
 82        0.0000000000
 83        0.0069772305
 84       -0.0069772305
 85       -0.0000000000
 86       -0.0000000000
 87       -0.0197345879
 88       -0.0000000000
 89       -0.0046930423
 90        0.0046930423
 91        0.0000000000
 92        0.0000000000
 93        0.0132739281
 94        0.0000000000
 95        0.0004991056
 96       -0.0004991056
 97       -0.0000000000
 98        0.0000000000
 99       -0.0014116838
100        0.0000000000
101       -0.0030388806
102       -0.0079810194
103       -0.0127619194
104       -0.0590752001
105       -0.0304599610
106       -0.0306140545
107       -0.0168166345
108        0.0008249143
109        0.0021106071
110       -0.0021106071
111       -0.0000000000
112       -0.0000000000
113        0.0000000000
114       -0.0059696984
115       -0.0069772305
116        0.0069772305
117        0.0000000000
118        0.0000000000
119       -0.0000000000
120        0.0197345879
121        0.0046930423
122       -0.0046930423
123       -0.0000000000
124        0.0000000000
125        0.0000000000
126       -0.0132739281
127       -0.0004991056
128        0.0004991056
129        0.0000000000
130       -0.0000000000
131       -0.0000000000
132        0.0014116838
133       -0.0030388806
134       -0.0079810194
135       -0.0127619194
136       -0.0590752001
137       -0.0304599610
138       -0.0306140545
139       -0.0168166345
140        0.0008249143
141        0.0021106071
142       -0.0021106071
143        0.0000000000
144       -0.0000000000
145       -0.0000000000
146        0.0059696984
147       -0.0069772305
148        0.0069772305
149        0.0000000000
150        0.0000000000
151       -0.0000000000
152       -0.0197345879
153        0.0046930423
154       -0.0046930423
155       -0.0000000000
156       -0.0000000000
157        0.0000000000
158        0.0132739281
159       -0.0004991056
160        0.0004991056
161        0.0000000000
162        0.0000000000
163       -0.0000000000
164       -0.0014116838
 Sym= A
 Ene= -0.54530732211021038     
 Spin= Alpha
 Occup= 1.0
  1        0.0000000000
  2       -0.0000000000
  3        0.0000000000
  4       -0.0000000000
  5        0.0000000000
  6       -0.0000000000
  7        0.0002121111
  8       -0.0002121111
  9        0.0000000000
 10        0.0000000000
 11        0.0000207068
 12        0.0010744502
 13        0.0012880623
 14       -0.0012880623
 15       -0.0000000000
 16       -0.0000000000
 17        0.0001257441
 18        0.0065246877
 19       -0.0212342320
 20        0.0212342320
 21        0.0000000000
 22        0.0000000000
 23       -0.0020729419
 24       -0.1075621335
 25        0.0894997473
 26       -0.0894997473
 27       -0.0000000000
 28       -0.0000000000
 29        0.0087372022
 30        0.4533615226
 31       -0.1198598364
 32        0.1198598364
 33        0.0000000000
 34        0.0000000000
 35       -0.0117010344
 36       -0.6071507412
 37        0.0020115125
 38        0.0013629225
 39        0.0234738163
 40       -0.0226239955
 41        0.1100106927
 42        0.0946990189
 43        0.0672667723
 44       -0.0181585258
 45       -0.0020130175
 46       -0.0070013071
 47        0.0090143246
 48       -0.0501633682
 49       -0.0208472883
 50        0.0517564388
 51        0.0131847254
 52        0.0111465249
 53       -0.0243312503
 54        0.1353997694
 55        0.1116555675
 56       -0.2017687090
 57        0.0069621985
 58       -0.0121143601
 59        0.0051521616
 60       -0.0286710090
 61       -0.1029869105
 62        0.2410790385
 63       -0.0015982254
 64       -0.0092866039
 65        0.0108848293
 66       -0.0605724469
 67        0.0194922619
 68       -0.0159882841
 69        0.0017517368
 70        0.0011869086
 71        0.0204423026
 72       -0.0197022315
 73        0.0958034196
 74        0.0824691639
 75        0.0585796404
 76       -0.0158134525
 77       -0.0013378485
 78       -0.0083209764
 79        0.0096588249
 80        0.0501633682
 81        0.0200210652
 82        0.0517564388
 83        0.0087788551
 84        0.0172920152
 85       -0.0260708703
 86       -0.1353997694
 87       -0.1045106802
 88       -0.2017687090
 89        0.0116924807
 90       -0.0172130083
 91        0.0055205276
 92        0.0286710090
 93        0.0983788744
 94        0.2410790385
 95       -0.0028914188
 96       -0.0087716469
 97        0.0116630657
 98        0.0605724469
 99       -0.0175514048
100       -0.0159882841
101        0.0048580797
102        0.0032916454
103        0.0566924984
104       -0.0546400642
105        0.2656909704
106        0.2287111699
107        0.1624585173
108       -0.0438553401
109        0.0418990652
110       -0.0158413678
111       -0.0260576975
112       -0.0009667505
113        0.0009974522
114       -0.0010016174
115       -0.1736598311
116        0.1033255143
117        0.0703343168
118        0.0026094300
119       -0.0038884950
120        0.0772861114
121        0.1469446391
122       -0.1320512915
123       -0.0148933476
124       -0.0005525489
125        0.0046460853
126       -0.0188694666
127       -0.0043310821
128        0.0357958452
129       -0.0314647631
130       -0.0011673547
131       -0.0003081269
132        0.0318323810
133       -0.0086213291
134       -0.0058414765
135       -0.1006086173
136        0.0969662912
137       -0.4715050827
138       -0.4058793527
139       -0.2883049299
140        0.0778273185
141       -0.0265767817
142        0.0191922337
143        0.0073845480
144        0.0009667505
145        0.0009974522
146       -0.0418699708
147        0.1452212910
148       -0.1252890949
149       -0.0199321961
150       -0.0026094300
151       -0.0038884950
152        0.2934523591
153       -0.1176172706
154        0.1133966122
155        0.0042206584
156        0.0005525489
157        0.0046460853
158       -0.2202352515
159        0.0223893329
160       -0.0313062010
161        0.0089168682
162        0.0011673547
163       -0.0003081269
164        0.0688760477
 Sym= A
 Ene= -0.54530732211018229     
 Spin= Alpha
 Occup= 1.0
  1        0.0000000000
  2       -0.0000000000
  3        0.0000000000
  4       -0.0000000000
  5        0.0000000000
  6       -0.0000000000
  7        0.0000311875
  8       -0.0000311875
  9        0.0000000000
 10       -0.0000000000
 11        0.0011527149
 12       -0.0000468425
 13        0.0001893887
 14       -0.0001893887
 15       -0.0000000000
 16        0.0000000000
 17        0.0069999566
 18       -0.0002844551
 19       -0.0031221501
 20        0.0031221501
 21        0.0000000000
 22       -0.0000000000
 23       -0.1153971348
 24        0.0046893585
 25        0.0131594892
 26       -0.0131594892
 27       -0.0000000000
 28        0.0000000000
 29        0.4863851157
 30       -0.0197650848
 31       -0.0176234489
 32        0.0176234489
 33        0.0000000000
 34       -0.0000000000
 35       -0.6513765919
 36        0.0264697935
 37        0.0075072979
 38        0.0050866524
 39        0.0876081700
 40       -0.0844364982
 41        0.4105781252
 42        0.3534324227
 43        0.2510507351
 44       -0.0677706258
 45       -0.0190390984
 46        0.0356054228
 47       -0.0165663244
 48        0.0021869594
 49       -0.0260017273
 50       -0.0022564120
 51        0.1242483297
 52       -0.1689637582
 53        0.0447154285
 54       -0.0059029886
 55        0.2147637068
 56        0.0087964581
 57       -0.1302919304
 58        0.1397604580
 59       -0.0094685276
 60        0.0012499625
 61       -0.1430645376
 62       -0.0105102603
 63        0.0356648696
 64       -0.0156609735
 65       -0.0200038961
 66        0.0026407613
 67        0.0567454333
 68        0.0006970371
 69       -0.0069539730
 70       -0.0047117410
 71       -0.0811510156
 72        0.0782131116
 73       -0.3803164913
 74       -0.3273827091
 75       -0.2325470571
 76        0.0627755962
 77        0.0185464078
 78       -0.0378583166
 79        0.0193119088
 80       -0.0021869594
 81       -0.0199926974
 82       -0.0022564120
 83       -0.1210189407
 84        0.1731451852
 85       -0.0521262445
 86        0.0059029886
 87        0.1829799589
 88        0.0087964581
 89        0.1330347991
 90       -0.1440725729
 91        0.0110377738
 92       -0.0012499625
 93       -0.1134569582
 94       -0.0105102603
 95       -0.0363249991
 96        0.0130058000
 97        0.0233191991
 98       -0.0026407613
 99        0.0512987617
100        0.0006970371
101       -0.0005704916
102       -0.0003865429
103       -0.0066574852
104        0.0064164648
105       -0.0312004896
106       -0.0268578961
107       -0.0190777476
108        0.0051499984
109       -0.0003662150
110        0.0010100207
111       -0.0006438057
112       -0.0538173498
113        0.0555264623
114        0.0039390457
115        0.0048603753
116       -0.0065981204
117        0.0017377451
118        0.1452625095
119       -0.2164658710
120       -0.0239733684
121       -0.0036109611
122        0.0039789300
123       -0.0003679689
124       -0.0307594521
125        0.2586396290
126        0.0200158829
127        0.0019100482
128       -0.0011326505
129       -0.0007773977
130       -0.0649846428
131       -0.0171528968
132       -0.0049186154
133        0.0000171667
134        0.0000116315
135        0.0002003308
136       -0.0001930782
137        0.0009388556
138        0.0008081824
139        0.0005740696
140       -0.0001549689
141        0.0026191088
142       -0.0005173301
143       -0.0021017787
144        0.0538173498
145        0.0555264623
146       -0.0020699842
147       -0.0090418023
148        0.0033687314
149        0.0056730709
150       -0.1452625095
151       -0.2164658710
152        0.0078103795
153        0.0079230759
154       -0.0067217986
155       -0.0012012773
156        0.0307594521
157        0.2586396290
158       -0.0095916965
159        0.0007451252
160        0.0017927800
161       -0.0025379053
162        0.0649846428
163       -0.0171528968
164        0.0005280562
 Sym= A
 Ene= -0.54530732211013377     
 Spin= Alpha
 Occup= 1.0
  1       -0.0000000000
  2       -0.0000000000
  3        0.0000000000
  4       -0.0000000000
  5        0.0000000000
  6       -0.0000000001
  7       -0.0005364190
  8        0.0005364190
  9       -0.0000000000
 10        0.0000000000
 11        0.0000752070
 12        0.0004221363
 13       -0.0032574487
 14        0.0032574487
 15        0.0000000000
 16       -0.0000000000
 17        0.0004567007
 18        0.0025634577
 19        0.0537003686
 20       -0.0537003686
 21       -0.0000000000
 22        0.0000000000
 23       -0.0075288963
 24       -0.0422596432
 25       -0.2263406284
 26        0.2263406284
 27        0.0000000000
 28       -0.0000000000
 29        0.0317333972
 30        0.1781193398
 31        0.3031198579
 32       -0.3031198579
 33       -0.0000000000
 34        0.0000000000
 35       -0.0424979948
 36       -0.2385409519
 37       -0.0042867889
 38       -0.0029045610
 39       -0.0500256861
 40        0.0482146100
 41       -0.2344467689
 42       -0.2018156459
 43       -0.1433540417
 44        0.0386981265
 45        0.0030109885
 46        0.0217711757
 47       -0.0247821642
 48       -0.0197084789
 49        0.0501766513
 50        0.0203343739
 51       -0.0197713984
 52       -0.0471200293
 53        0.0668914277
 54        0.0531966572
 55       -0.2603620431
 56       -0.0792720764
 57       -0.0321785606
 58        0.0463428737
 59       -0.0141643131
 60       -0.0112644345
 61        0.2462541120
 62        0.0947165496
 63        0.0080254792
 64        0.0218990729
 65       -0.0299245521
 66       -0.0237980590
 67       -0.0433162577
 68       -0.0062815710
 69       -0.0052302907
 70       -0.0035438411
 71       -0.0610361017
 72        0.0588264163
 73       -0.2860473879
 74       -0.2462343098
 75       -0.1749055845
 76        0.0472154002
 77        0.0054631931
 78        0.0169781548
 79       -0.0224413479
 80        0.0197084789
 81       -0.0531774819
 82        0.0203343739
 83       -0.0357734582
 84       -0.0247996938
 85        0.0605731520
 86       -0.0531966572
 87        0.2863121747
 88       -0.0792720764
 89       -0.0149982410
 90        0.0278246542
 91       -0.0128264132
 92        0.0112644345
 93       -0.2629904352
 94        0.0947165496
 95        0.0033286186
 96        0.0237693894
 97       -0.0270980080
 98        0.0237980590
 99        0.0503654236
100       -0.0062815710
101        0.0074064745
102        0.0050183384
103        0.0864315873
104       -0.0833025112
105        0.4050640376
106        0.3486858051
107        0.2476791094
108       -0.0668604624
109       -0.0059230686
110       -0.0111191945
111        0.0170422630
112       -0.0035112245
113        0.0036227327
114       -0.0600988874
115       -0.0266820832
116        0.0726821540
117       -0.0460000707
118        0.0094774136
119       -0.0141229599
120        0.3461660636
121        0.0148875551
122       -0.0246281067
123        0.0097405516
124       -0.0020068499
125        0.0168745174
126       -0.3015927071
127       -0.0280832680
128        0.0075046742
129        0.0205785937
130       -0.0042398162
131       -0.0011191126
132        0.0666243003
133        0.0021106051
134        0.0014300637
135        0.0246302004
136       -0.0237385151
137        0.1154301192
138        0.0993641506
139        0.0705805168
140       -0.0190530643
141       -0.0328262618
142        0.0026450128
143        0.0301812490
144        0.0035112245
145        0.0036227327
146        0.0432552458
147        0.0986018063
148       -0.0171372974
149       -0.0814645089
150       -0.0094774136
151       -0.0141229599
152       -0.2005081542
153       -0.0890550830
154        0.0718049084
155        0.0172501746
156        0.0020068499