 --invoking executable--
/usr/local/cfour/bin/xjoda


   *************************************************************************
         <<<     CCCCCC     CCCCCC   |||     CCCCCC     CCCCCC   >>>
       <<<      CCC        CCC       |||    CCC        CCC         >>>
      <<<      CCC        CCC        |||   CCC        CCC            >>>
    <<<        CCC        CCC        |||   CCC        CCC              >>>
      <<<      CCC        CCC        |||   CCC        CCC            >>>
       <<<      CCC        CCC       |||    CCC        CCC         >>>
         <<<     CCCCCC     CCCCCC   |||     CCCCCC     CCCCCC   >>>
   *************************************************************************

     ****************************************************************
     * CFOUR Coupled-Cluster techniques for Computational Chemistry *
     ****************************************************************


   Department of Chemistry                Institut fuer Physikalische Chemie
   University of Texas at Austin          Universitaet Mainz
   Austin, TX  78712, USA                 D-55099 Mainz, Germany

                       Version 2.00beta

                     kbob-G41MT-S2                                     
                     Пн. мая 11 14:49:03 KRAT 2015                
                     integer*8 version is running

********************************************************************************
*                          Input from ZMAT file                                *
********************************************************************************
CFOUR input file for CASINO with sd-orbitals                                    
C       0.000000      0.000000      0.000000                                    
H       0.629118      0.629118      0.629118                                    
H      -0.629118     -0.629118      0.629118                                    
H       0.629118     -0.629118     -0.629118                                    
H      -0.629118      0.629118     -0.629118                                    
                                                                                
*CFOUR(CALC=HF                                                                  
SCF_CONV=10                                                                     
SYMMETRY=OFF                                                                    
BASIS=svp                                                                       
COORD=CARTESIAN)                                                                
                                                                                
********************************************************************************
    -------------------------------------------------------------------
                    CFOUR Control Parameters 
    -------------------------------------------------------------------
        External           Internal           Value            Units
          Name               Name
    -------------------------------------------------------------------
       ABCDTYPE             IABCDT         STANDARD     [  0]   ***   
       ANHARMONIC           IANHAR         OFF          [  0]   ***   
       ANH_ALGORIT          IANALG         STANDARD     [  0]   ***   
       ANH_DERIVAT          IANDER         SECOND       [  1]   ***   
       ANH_STEPSIZ          ICUBST             50000          x 10-6  
       ANH_SYMMETR          IANHSM         ABELIAN      [  0]   ***   
       AO_LADDERS           IAOLAD         SINGLEPASS   [  1]   ***   
       BASIS                IBASIS         svp          [ 28]   ***   
       BREIT                IBREIT         OFF          [  0]   ***   
       BRUCK_CONV           IBRTOL          10D-  4             ***   
       BRUECKNER            IBRKNR             OFF      [  0]   ***   
       BUFFERSIZE           IBUFFS            600               ***   
       CACHE_RECS           ICHREC             10               ***   
       CALCLEVEL            ICLLVL           SCF        [  0]   ***   
       CCORBOPT             ICCORB             OFF      [  0] x 0.01  
       CC_CONV              ICCCNV          10D-  7             ***   
       CC_EXPORDER          ICCEOR              0               ***   
       CC_EXTRAPOL          ICCEXT             DIIS     [  1]   ***   
       CC_MAXCYC            ICCCYC              0              cycles 
       CC_PROGRAM           ICCPRO         VCC          [  0]   ***   
       CHARGE               ICHRGE              0               ***   
       CHOLESKY             ICHOLE         OFF          [  0]   ***   
       CIS_CONV             ICISTL              5               ***   
       COMM_SIZE            IPSIZE            ***               ***   
       CONSTANT             ICONST         OLD          [  1]   ***   
       CONTINUUM            ICONTU         NONE         [  0]   ***   
       CONTRACTION          ICNTYP          GENERAL     [  1]   ***   
       COORDINATES          ICOORD         CARTESIAN    [  1]   ***   
       CPHF_CONVER          ICPHFT          10D- 16             ***   
       CPHF_MAXCYC          ICPHFC             64              cycles 
       CUBIC                ICUBIC         OFF          [  0]   ***   
       CURVILINEAR          ICURVY            OFF       [  0]   ***   
       DBOC                 IDBOC          OFF          [  0]   ***   
       DCT                  IDCT           OFF          [  0]   ***   
       DERIV_LEV            IDRLVL            ZERO      [  0]   ***   
       DIAG_MRCC            IEOMST          10D-  0             ***   
       DIFF_TYPE            IDIFTY         RELAXED      [  0]   ***   
       DIRECT               IDIRCT         OFF          [  0]   ***   
       DROPMO               IDRPMO      NONE         
       ECP                  IECP           OFF          [  0]   ***   
       EIGENVECTOR          IVEC                1               ***   
       EL_ANHARM            IELANH         OFF          [  0]   ***   
       EOMFOLLOW            IEOMSR         ENERGY       [  0]   ***   
       EOM_MRCC             IMRCCE         NEW          [  1]   ***   
       EOM_NONIT            EOMNON         OFF          [  0]   ***   
       EOM_NSING            IEOMSI          10D-  0             ***   
       EOM_NSTATES          IMRCCD         DAVIDSON     [  0]   ***   
       EOM_NTRIP            IEOMTR          10D-  0             ***   
       EOM_ORDER            IEXORD         ENERGY       [  0]   ***   
       ESTATE_CONV          IEXTOL          10D-  5             ***   
       ESTATE_DIAG          IEXDIG         ITERATIVE    [  0]   ***   
       ESTATE_LOCK          IESLOC         ON           [  1]   ***   
       ESTATE_MAXC          IEXMXC             20               ***   
       ESTATE_PROP          IEXPRP         OFF          [  0]   ***   
       EVAL_HESS            IRECAL              0            # of cyc.
       EXCITATION           IEXCIT              0               ***   
       EXCITE               IEXCIT         NONE         [  0]   ***   
       FCGRADNEW            IFCGNW         OFF          [  0]   ***   
       FC_FIELD             IFINFC              0             x 10-6  
       FD_CALTYPE           IFDCAL         GRADONLY     [  0]   ***   
       FD_PROJECT           IFDPRJ         OFF          [  1]   ***   
       FD_STEPSIZE          IDISFD              0            10-4 bohr
       FD_USEGROUP          IFDGRP         FULL         [  0]   ***   
       FILE_RECSIZ          IFLREC              4096           words  
       FINITE_PERT          IFIPER              0             x 10-6  
       FIXGEOM              IFIXGM         OFF          [  0]   ***   
       FOCK                 IFOCK          AO           [  1]   ***   
       FREQ_ALGORI          IVIALG         STANDARD     [  0]   ***   
       FROZEN_CORE          IFROCO         OFF          [  0]   ***   
       FROZEN_VIRT          IFROVI         OFF          [  0]   ***   
       GAMMA_ABCD           IGABCD         STORE        [  0]   ***   
       GAMMA_ABCI           IGABCI         STORE        [  0]   ***   
       GENBAS_1             IGNBS1              0               ***   
       GENBAS_2             IGNBS2              0               ***   
       GENBAS_3             IGNBS3              0               ***   
       GENBAS_4             IGNBS4              0               ***   
       GEO_CONV             ICONTL              5              H/bohr 
       GEO_MAXCYC           IOPTCY             50               ***   
       GEO_MAXSTEP          IMXSTP            300            millibohr
       GEO_METHOD           INR            SINGLE_POINT [  5]   ***   
       GIAO                 IGIAO          OFF          [  1]   ***   
       GIMIC                IGIMIC         OFF          [  0]   ***   
       GRID                 IGRID          OFF          [  0]   ***   
       GRID_ALGO            IGALGO         SERIAL       [  0]   ***   
       GUESS                IGUESS            MOREAD    [  0]   ***   
       HBAR                 IHBAR              OFF      [  0]   ***   
       HESS_TYPE            IHESTP         SCF          [  0]   ***   
       HF2_FILE             IHF2Fl         USE          [  1]   ***   
       HFSTABILITY          ISTABL         OFF          [  0]   ***   
       INCORE               INCORE             OFF      [  0]   ***   
       INPUT_MRCC           IMRCC          ON           [  1]   ***   
       INTEGRALS            INTTYP             VMOL     [  1]   ***   
       JODA_PRINT           IJPRNT              0               ***   
       LINDEP_TOL           ILINDP              8               ***   
       LINEQ_CONV           IZTACN          10D-  7           cycles  
       LINEQ_EXPOR          ILMAXD              5               ***   
       LINEQ_MAXCY          ILMAXC             50               ***   
       LINEQ_TYPE           ILTYPE         DIIS         [  1]   ***   
       LOCK_ORBOCC          ILOCOC             OFF      [  0]   ***   
       MEMORY_SIZE          IMEMSZ         100000000           words  
       MEM_UNIT             IMEMU          INTEGERWORDS [  0]   ***   
       MRCC                 IMRCCC         OFF          [  0]   ***   
       MULTIPLICTY          IMULTP              1               ***   
       NEGEVAL              IDIE             ABORT      [  0]   ***   
       NEWNORM              INEWNO         OFF          [  0]   ***   
       NON-HF               INONHF             OFF      [  0]   ***   
       NTOP_TAMP            ITOPT2             15               ***   
       NUC_MODEL            INUCMO         POINT        [  0]   ***   
       OCCUPATION           IOCCU   ESTIMATED BY SCF 
       OPEN-SHELL           IOPEN          SPIN-ORBITAL [  0]   ***   
       ORBITALS             IORBTP           STANDARD   [  0]   ***   
       PARALLEL             IPARAL         ON           [  1]   ***   
       PARA_INT             IPINTS         ON           [  1]   ***   
       PARA_PRINT           IPPRIN              0               ***   
       PERT_ORB             IPTORB         STANDARD     [  0]   ***   
       POINTS               IGRDFD              0               ***   
       PRINT                IPRNT               0               ***   
       PROPS                IPROPS             OFF      [  0]   ***   
       PROP_INTEGR          IINTYP         INTERNAL     [  0]   ***   
       PSI                  IPSI           OFF          [  0]   ***   
       QUARTIC              IQUART         OFF          [  0]   ***   
       RAMAN_INT            IRAMIN         OFF          [  0]   ***   
       RAMAN_ORB            IRAMRE         UNRELAXED    [  0]   ***   
       RDO                  IRDOFM             OFF      [  0]   ***   
       REFERENCE            IREFNC             RHF      [  0]   ***   
       RELATIVIST           IRELAT         OFF          [  0]   ***   
       RELAX_DENS           IRDENS             OFF      [  0]   ***   
       RESET_FLAGS          IRESET             OFF      [  0]   ***   
       RESTART_CC           ICCRES         OFF          [  0]   ***   
       ROT_EVEC             ROTVEC              0               ***   
       SAVE_INTS            ISVINT             OFF      [  0]   ***   
       SCALE_ON             ISTCRT              0               ***   
       SCF_CONV             ISCFCV          10D- 10             ***   
       SCF_DAMPING          IDAMP               0             x 10-3  
       SCF_EXPORDE          IRPPOR              6               ***   
       SCF_EXPSTAR          IRPPLS              8               ***   
       SCF_EXTRAPO          IRPP                ON      [  1]   ***   
       SCF_MAXCYC           ISCFCY            150              cycles 
       SCF_NOSTOP           ISCFST         OFF          [  0]   ***   
       SCF_PRINT            ISCFPR              0               ***   
       SD_FIELD             IFINSD              0             x 10-6  
       SEQUENCE             ISEQUE         OFF          [  0]   ***   
       SOPERT               IPERSO         OFF          [  0]   ***   
       SPHERICAL            IDFGHI             ON       [  1]   ***   
       SPINORBIT            ISOCAL         OFF          [  0]   ***   
       SPINROTATIO          ISRCON         OFF          [  0]   ***   
       SPIN_FLIP            ISPFLP         OFF          [  0]   ***   
       SPIN_ORBIT           ISPORB         OFF          [  0]   ***   
       SPIN_SCAL            ISCSMP         OFF          [  0]   ***   
       SUBGROUP             ISUBGP         DEFAULT      [  0]   ***   
       SUBGRPAXIS           ISBXYZ         X            [  0]   ***   
       SYMMETRY             ISYM            OFF         [  1]   ***   
       SYM_CHECK            ISYMCK         OVERRIDE     [  1]   ***   
       T3_EXTRAPOL          IT3EXT         OFF          [  0]   ***   
       TAMP_SUM             IEVERY              0               ***   
       TESTSUITE            ITESTS         OFF          [  0]   ***   
       THERMOCH             ITHERM         OFF          [  0]   ***   
       TOL_CHOLESK          ITOLCH          10D-  4             ***   
       TRANGRAD             IRESRM         OFF          [  0]   ***   
       TRANS_INV            ITRAIN         USE          [  0]   ***   
       TREAT_PERT           ITREAT         SIMULTANEOUS [  0]   ***   
       UIJ_THRESHO          IUIJTH              1               ***   
       UNITS                IUNITS         ANGSTROM     [  0]   ***   
       UNOS                 IUNOS          OFF          [  0]   ***   
       UPDATE_HESS          IHUPDT         ON           [  1]   ***   
       VIBPHASE             ISETPH         STANDARD     [  0]   ***   
       VIBRATION            IVIB              NO        [  0]   ***   
       VIB_ALGORIT          IGEALG         STANDARD     [  0]   ***   
       VNATORB              IVNORB         OFF          [  0]   ***   
       VTRAN                IVTRAN         FULL/PARTIAL [  0]   ***   
       XFIELD               IXEFLD              0             x 10-6  
       XFORM_TOL            IXFTOL          10D- 11             ***   
       YFIELD               IYEFLD              0             x 10-6  
       ZFIELD               IZEFLD              0             x 10-6  
    -------------------------------------------------------------------
  @GETXYZ-I,     5 atoms read from ZMAT.
  1  C          6    12.00000
  2  H          1     1.00783
  3  H          1     1.00783
  4  H          1     1.00783
  5  H          1     1.00783
  1  C          6    12.00000
  2  H          1     1.00783
  3  H          1     1.00783
  4  H          1     1.00783
  5  H          1     1.00783
 factor:   60.199719999999999     
   Rotational constants (in cm-1): 
          5.2827152700             5.2827152700             5.2827152700
   Rotational constants (in MHz): 
     158371.8417567255        158371.8417567255        158371.8417567255
********************************************************************************
   The full molecular point group is T d .
   The largest Abelian subgroup of the full molecular point group is C2v .
   The computational point group is C1  .
********************************************************************************
 ----------------------------------------------------------------
 Z-matrix   Atomic            Coordinates (in bohr)
  Symbol    Number           X              Y              Z
 ----------------------------------------------------------------
     C         6         0.00000000     0.00000000     0.00000000
     H         1         1.68130331     0.00000000     1.18886097
     H         1        -1.68130331     0.00000000     1.18886097
     H         1         0.00000000    -1.68130331    -1.18886097
     H         1         0.00000000     1.68130331    -1.18886097
 ----------------------------------------------------------------
   Interatomic distance matrix (Angstroms) 

                 C             H             H             H             H    
                [ 1]        [ 2]        [ 3]        [ 4]        [ 5]
  C    [ 1]     0.00000
  H    [ 2]     1.08966     0.00000
  H    [ 3]     1.08966     1.77941     0.00000
  H    [ 4]     1.08966     1.77941     1.77941     0.00000
  H    [ 5]     1.08966     1.77941     1.77941     1.77941     0.00000
   Rotational constants (in cm-1): 
          5.2827152700             5.2827152700             5.2827152700
   Rotational constants (in MHz): 
     158371.8417567255        158371.8417567255        158371.8417567255
  There are  143 basis functions.
 @GEOPT-W, Archive file not created for single-point calculation.
  @CHECKOUT-I, Total execution time (CPU/WALL):        0.56/       0.47 seconds.
--executable xjoda finished with status     0 in        0.49 seconds (walltime).
 --invoking executable--
/usr/local/cfour/bin/xvmol
 Serial version of molecule started
********************************************************************************
                    Input from MOL file
********************************************************************************
INTGRL        1    0    1    0    0    0    0    0    0                         
         *** CFOUR Program System (Release V0.1) ***                            
CFOUR input file for CASINO with sd-orbitals                                    
    5    0            0.10E-08              0    0                              
   9999.00      3.00                                                            
          6.00000000    1    3    6    0    5                                   
C #1   0.000000000000000   0.000000000000000   0.000000000000000                
   11    1                                                                      
   312100.00000000000        5.6699999999999999E-006                            
   46740.000000000000        4.4100000000000001E-005                            
   10640.000000000000        2.3190000000000000E-004                            
   3013.0000000000000        9.7897000000000001E-004                            
   982.79999999999995        3.5516300000000001E-003                            
   354.80000000000001        1.1440610000000000E-002                            
   138.40000000000001        3.2998550000000001E-002                            
   57.350000000000001        8.4053470000000005E-002                            
   24.920000000000002       0.18067612999999999                                 
   11.230000000000000       0.30491140000000000                                 
   5.2009999999999996       0.34141569999999999                                 
    1    1                                                                      
   2.4260000000000002        1.0000000000000000                                 
    1    1                                                                      
  0.96730000000000005        1.0000000000000000                                 
    1    1                                                                      
  0.44560000000000000        1.0000000000000000                                 
    1    1                                                                      
  0.19710000000000000        1.0000000000000000                                 
    1    1                                                                      
   8.6349999999999996E-002   1.0000000000000000                                 
    3    1                                                                      
   46.135374108083106        6.6788294544309193E-002                            
   20.268218225399441       0.23122499388298942                                 
   6.0945916652598555        5.0799591990022650                                 
    1    1                                                                      
   1.7693044883902429        1.0000000000000000                                 
    1    1                                                                      
  0.48622668729967589        1.0000000000000000                                 
    1    1                                                                      
  0.33390123157489604        1.0000000000000000                                 
    1    1                                                                      
  0.19249575927525764        1.0000000000000000                                 
          1.00000000    1    3    8    0    4                                   
H #2   1.681303306460232   0.000000000000000   1.188860969229394                
    8    1                                                                      
   13940.799999999999        3.0100000000000000E-006                            
   3471.4299999999998        5.4399999999999996E-006                            
   1903.1800000000001        1.7850000000000000E-005                            
   623.28599999999994        7.1950000000000001E-005                            
   290.36000000000001        1.2055000000000000E-004                            
   126.58499999999999        5.2526999999999999E-004                            
   44.695500000000003        2.0138399999999998E-003                            
   16.003799999999998        6.8708600000000003E-003                            
    1    1                                                                      
   6.0805600000000002        1.0000000000000000                                 
    1    1                                                                      
   2.4762200000000001        1.0000000000000000                                 
    1    1                                                                      
   1.0757099999999999        1.0000000000000000                                 
    1    1                                                                      
  0.48968200000000001        1.0000000000000000                                 
    1    1                                                                      
  0.22978599999999999        1.0000000000000000                                 
    1    1                                                                      
  0.10996549999999999        1.0000000000000000                                 
    1    1                                                                      
   5.2323000000000001E-002   1.0000000000000000                                 
    3    1                                                                      
   3.1324842646299400        6.4545862745101906E-003                            
   1.5153893402149163       -7.0854768532677637E-002                            
  0.90028999344114136       0.22897857323582813                                 
    1    1                                                                      
  0.50616845104080932        1.0000000000000000                                 
    1    1                                                                      
  0.35861735452268051        1.0000000000000000                                 
    1    1                                                                      
   9.4800330788481782E-002   1.0000000000000000                                 
          1.00000000    1    3    8    0    4                                   
H #3  -1.681303306460232   0.000000000000000   1.188860969229394                
    8    1                                                                      
   13940.799999999999        3.0100000000000000E-006                            
   3471.4299999999998        5.4399999999999996E-006                            
   1903.1800000000001        1.7850000000000000E-005                            
   623.28599999999994        7.1950000000000001E-005                            
   290.36000000000001        1.2055000000000000E-004                            
   126.58499999999999        5.2526999999999999E-004                            
   44.695500000000003        2.0138399999999998E-003                            
   16.003799999999998        6.8708600000000003E-003                            
    1    1                                                                      
   6.0805600000000002        1.0000000000000000                                 
    1    1                                                                      
   2.4762200000000001        1.0000000000000000                                 
    1    1                                                                      
   1.0757099999999999        1.0000000000000000                                 
    1    1                                                                      
  0.48968200000000001        1.0000000000000000                                 
    1    1                                                                      
  0.22978599999999999        1.0000000000000000                                 
    1    1                                                                      
  0.10996549999999999        1.0000000000000000                                 
    1    1                                                                      
   5.2323000000000001E-002   1.0000000000000000                                 
    3    1                                                                      
   3.1324842646299400        6.4545862745101906E-003                            
   1.5153893402149163       -7.0854768532677637E-002                            
  0.90028999344114136       0.22897857323582813                                 
    1    1                                                                      
  0.50616845104080932        1.0000000000000000                                 
    1    1                                                                      
  0.35861735452268051        1.0000000000000000                                 
    1    1                                                                      
   9.4800330788481782E-002   1.0000000000000000                                 
          1.00000000    1    3    8    0    4                                   
H #4   0.000000000000000  -1.681303306460232  -1.188860969229394                
    8    1                                                                      
   13940.799999999999        3.0100000000000000E-006                            
   3471.4299999999998        5.4399999999999996E-006                            
   1903.1800000000001        1.7850000000000000E-005                            
   623.28599999999994        7.1950000000000001E-005                            
   290.36000000000001        1.2055000000000000E-004                            
   126.58499999999999        5.2526999999999999E-004                            
   44.695500000000003        2.0138399999999998E-003                            
   16.003799999999998        6.8708600000000003E-003                            
    1    1                                                                      
   6.0805600000000002        1.0000000000000000                                 
    1    1                                                                      
   2.4762200000000001        1.0000000000000000                                 
    1    1                                                                      
   1.0757099999999999        1.0000000000000000                                 
    1    1                                                                      
  0.48968200000000001        1.0000000000000000                                 
    1    1                                                                      
  0.22978599999999999        1.0000000000000000                                 
    1    1                                                                      
  0.10996549999999999        1.0000000000000000                                 
    1    1                                                                      
   5.2323000000000001E-002   1.0000000000000000                                 
    3    1                                                                      
   3.1324842646299400        6.4545862745101906E-003                            
   1.5153893402149163       -7.0854768532677637E-002                            
  0.90028999344114136       0.22897857323582813                                 
    1    1                                                                      
  0.50616845104080932        1.0000000000000000                                 
    1    1                                                                      
  0.35861735452268051        1.0000000000000000                                 
    1    1                                                                      
   9.4800330788481782E-002   1.0000000000000000                                 
          1.00000000    1    3    8    0    4                                   
H #5   0.000000000000000   1.681303306460232  -1.188860969229394                
    8    1                                                                      
   13940.799999999999        3.0100000000000000E-006                            
   3471.4299999999998        5.4399999999999996E-006                            
   1903.1800000000001        1.7850000000000000E-005                            
   623.28599999999994        7.1950000000000001E-005                            
   290.36000000000001        1.2055000000000000E-004                            
   126.58499999999999        5.2526999999999999E-004                            
   44.695500000000003        2.0138399999999998E-003                            
   16.003799999999998        6.8708600000000003E-003                            
    1    1                                                                      
   6.0805600000000002        1.0000000000000000                                 
    1    1                                                                      
   2.4762200000000001        1.0000000000000000                                 
    1    1                                                                      
   1.0757099999999999        1.0000000000000000                                 
    1    1                                                                      
  0.48968200000000001        1.0000000000000000                                 
    1    1                                                                      
  0.22978599999999999        1.0000000000000000                                 
    1    1                                                                      
  0.10996549999999999        1.0000000000000000                                 
    1    1                                                                      
   5.2323000000000001E-002   1.0000000000000000                                 
    3    1                                                                      
   3.1324842646299400        6.4545862745101906E-003                            
   1.5153893402149163       -7.0854768532677637E-002                            
  0.90028999344114136       0.22897857323582813                                 
    1    1                                                                      
  0.50616845104080932        1.0000000000000000                                 
    1    1                                                                      
  0.35861735452268051        1.0000000000000000                                 
    1    1                                                                      
   9.4800330788481782E-002   1.0000000000000000                                 
FINISH                                                                          

********************************************************************************
 One- and two-electron integrals over symmetry-adapted AOs are calculated.

  Spherical harmonics are used.
  
  Integrals less than  0.10E-13 are neglected.

   Basis function not normalized: 
   Center (as ordered in MOL file):   1
   Angular Momentum type          : s
   Offset within angular momentum :  1
   <chi|chi>                      :    1.1696536752
   Basis function not normalized: 
   Center (as ordered in MOL file):   1
   Angular Momentum type          : d
   Offset within angular momentum :  1
   <chi|chi>                      :    0.1913052149
   Basis function not normalized: 
   Center (as ordered in MOL file):   2
   Angular Momentum type          : s
   Offset within angular momentum :  1
   <chi|chi>                      :  111.0545852328
   Basis function not normalized: 
   Center (as ordered in MOL file):   2
   Angular Momentum type          : d
   Offset within angular momentum :  1
   <chi|chi>                      :    5.8256838420
   Basis function not normalized: 
   Center (as ordered in MOL file):   3
   Angular Momentum type          : s
   Offset within angular momentum :  1
   <chi|chi>                      :  111.0545852328
   Basis function not normalized: 
   Center (as ordered in MOL file):   3
   Angular Momentum type          : d
   Offset within angular momentum :  1
   <chi|chi>                      :    5.8256838420
   Basis function not normalized: 
   Center (as ordered in MOL file):   4
   Angular Momentum type          : s
   Offset within angular momentum :  1
   <chi|chi>                      :  111.0545852328
   Basis function not normalized: 
   Center (as ordered in MOL file):   4
   Angular Momentum type          : d
   Offset within angular momentum :  1
   <chi|chi>                      :    5.8256838420
   Basis function not normalized: 
   Center (as ordered in MOL file):   5
   Angular Momentum type          : s
   Offset within angular momentum :  1
   <chi|chi>                      :  111.0545852328
   Basis function not normalized: 
   Center (as ordered in MOL file):   5
   Angular Momentum type          : d
   Offset within angular momentum :  1
   <chi|chi>                      :    5.8256838420
  Nuclear repulsion energy :   13.4395250729 a.u.
  required memory for a1 array               5029284  words 
  required memory for a2 array               2102540  words 
 @GETMEM-I,  Allocated      69 MB of main memory.
  @MOLECU-I, One electron integrals (CPU/WALL):        0.96/       0.94 seconds.
  @TWOEL-I,   44314197 integrals of symmetry type  I I I I
  @TWOEL-I, Total number of 2-e integrals   44314197.
  @MOLECU-I, Two electron integrals (CPU/WALL):      534.13/     313.47 seconds.
  @CHECKOUT-I, Total execution time (CPU/WALL):      536.75/     316.14 seconds.
--executable xvmol finished with status     0 in      316.31 seconds (walltime).
 --invoking executable--
/usr/local/cfour/bin/xvmol2ja
 @GETMEM-I,  Allocated     762 MB of main memory.
  @CHECKOUT-I, Total execution time (CPU/WALL):        0.03/       0.02 seconds.
--executable xvmol2ja finished with status     0 in        0.40 seconds (walltime).
 --invoking executable--
/usr/local/cfour/bin/xvscf
  There are  143 functions in the AO basis.

  There are 1 irreducible representations.

       Irrep        # of functions
         1                143


  Parameters for SCF calculation: 
        SCF reference function:  RHF  
  Maximum number of iterations:  150
     Full symmetry point group: T d 
     Computational point group: C1  
        Initial density matrix: MOREAD                 
     SCF convergence tolerance: 10**(-10)
  DIIS convergence acceleration:  ON
          Latest start for DIIS:   8
                     DIIS order:   6

  Memory information:    1094121 words required.
  Fock matrices are constructed from AO integral file.
 @GETMEM-I,  Allocated       8 MB of main memory.
  Initialization and symmetry analysis required      0.016 seconds.

  @INITGES-I, Occupancies from core Hamiltonian:

          Alpha population by irrep:   5
           Beta population by irrep:   5


 total no. of electrons in initial guess :   0.0000000000000000     
  --------------------------------------------------------------------
  Iteration         Total Energy            Largest Density Difference
  --------------------------------------------------------------------
       0            13.439525072866369              0.0000000000D+00
       1           -36.679807879224306              0.2243599332D+01
       2           -39.446417547454381              0.2006703991D+01
       3           -39.461109736246115              0.1708157538D+00
       4           -39.461331042778248              0.1397084570D-01
       5           -39.461340451205167              0.3974629474D-02
       6           -39.461340696228525              0.7795504382D-03
       7           -39.461340700892706              0.9491059166D-04
       8           -39.461340700938678              0.5424268536D-05
       9           -39.461340700938948              0.5802877088D-06
      10           -39.461340700938820              0.2717391051D-07
      11           -39.461340700939189              0.4496606920D-08
      12           -39.461340700938699              0.6806480934D-09
      13           -39.461340700938614              0.1088996809D-09
      14           -39.461340700939246              0.1729855698D-09

  SCF has converged.

 Density matrix saved to file den.dat
 total electron number:   10.000000000000014     
     E(SCF)=       -39.461340700938926              0.5264268932D-10

  Eigenvector printing suppressed.

 @PUTMOS-I, Writing converged MOs to NEWMOS. 
 @PUTMOS-I, Symmetry   1 Full Blocks 35 Partial Blocksize   3



  ORBITAL EIGENVALUES (ALPHA)  (1H = 27.2113838 eV)

       MO #        E(hartree)               E(eV)           FULLSYM    COMPSYM
       ----   --------------------   --------------------   -------   ---------
    1     1         -11.8612108548        -322.7599611359      A1         A (1)
    2     2          -1.1574841385         -31.4967451566      A1         A (1)
    3     3          -0.5453073221         -14.8385668416      T2         A (1)
    4     4          -0.5453073221         -14.8385668416      T2         A (1)
    5     5          -0.5453073221         -14.8385668416      T2         A (1)
  +++++++++++++++++++++++++++++++++++++++++++++++++++++++++++++++++++++++++++++
    6     6           0.0522870581           1.4228032056      A1         A (1)
    7     7           0.1095773866           2.9817523255      T2         A (1)
    8     8           0.1095773866           2.9817523255      T2         A (1)
    9     9           0.1095773866           2.9817523255      T2         A (1)
   10    10           0.1805220793           4.9122555891      T2         A (1)
   11    11           0.1805220793           4.9122555891      T2         A (1)
   12    12           0.1805220793           4.9122555891      T2         A (1)
   13    13           0.1999181976           5.4400508075       E         A (1)
   14    14           0.1999181976           5.4400508075       E         A (1)
   15    15           0.2523767529           6.8675206900      A1         A (1)
   16    16           0.3094363271           8.4201906633      A1         A (1)
   17    17           0.3234481769           8.8014724865      T1         A (1)
   18    18           0.3234481769           8.8014724865      T1         A (1)
   19    19           0.3234481769           8.8014724865      T1         A (1)
   20    20           0.3370927806           9.1727610345      T2         A (1)
   21    21           0.3370927806           9.1727610345      T2         A (1)
   22    22           0.3370927806           9.1727610345      T2         A (1)
   23    23           0.3867895169          10.5250780028      T2         A (1)
   24    24           0.3867895169          10.5250780029      T2         A (1)
   25    25           0.3867895169          10.5250780029      T2         A (1)
   26    26           0.4368983638          11.8886090684      T2         A (1)
   27    27           0.4368983638          11.8886090684      T2         A (1)
   28    28           0.4368983638          11.8886090684      T2         A (1)
   29    29           0.4387845091          11.9399336913       E         A (1)
   30    30           0.4387845091          11.9399336913       E         A (1)
   31    31           0.4550762624          12.3832548445      T1         A (1)
   32    32           0.4550762624          12.3832548445      T1         A (1)
   33    33           0.4550762624          12.3832548445      T1         A (1)
   34    34           0.4687994314          12.7566812618      T2         A (1)
   35    35           0.4687994314          12.7566812618      T2         A (1)
   36    36           0.4687994314          12.7566812618      T2         A (1)
   37    37           0.5453317679          14.8392320463       E         A (1)
   38    38           0.5453317679          14.8392320463       E         A (1)
   39    39           0.5991651303          16.3041123321      A1         A (1)
   40    40           0.6541322953          17.7998449556      A1         A (1)
   41    41           0.9008967505          24.5146472597      T1         A (1)
   42    42           0.9008967505          24.5146472597      T1         A (1)
   43    43           0.9008967505          24.5146472597      T1         A (1)
   44    44           0.9423489878          25.6426199988      T2         A (1)
   45    45           0.9423489878          25.6426199989      T2         A (1)
   46    46           0.9423489878          25.6426199989      T2         A (1)
   47    47           0.9634787298          26.2175895175      T2         A (1)
   48    48           0.9634787298          26.2175895176      T2         A (1)
   49    49           0.9634787298          26.2175895176      T2         A (1)
   50    50           0.9922632024          27.0008548515      A1         A (1)
   51    51           1.1318038313          30.7979484632       E         A (1)
   52    52           1.1318038313          30.7979484632       E         A (1)
   53    53           1.1480182730          31.2391658574      T2         A (1)
   54    54           1.1480182730          31.2391658574      T2         A (1)
   55    55           1.1480182730          31.2391658574      T2         A (1)
   56    56           1.2736401683          34.6575114664      T1         A (1)
   57    57           1.2736401683          34.6575114664      T1         A (1)
   58    58           1.2736401683          34.6575114664      T1         A (1)
   59    59           1.2763263664          34.7306066351      T2         A (1)
   60    60           1.2763263664          34.7306066351      T2         A (1)
   61    61           1.2763263664          34.7306066351      T2         A (1)
   62    62           1.2817039107          34.8769370584       E         A (1)
   63    63           1.2817039108          34.8769370585       E         A (1)
   64    64           1.3599654551          37.0065419813       E         A (1)
   65    65           1.3599654551          37.0065419814       E         A (1)
   66    66           1.3736646935          37.3793172146      A1         A (1)
   67    67           1.6979969087          46.2048456065      A1         A (1)
   68    68           1.6982996313          46.2130831068      T2         A (1)
   69    69           1.6982996313          46.2130831069      T2         A (1)
   70    70           1.6982996313          46.2130831069      T2         A (1)
   71    71           1.9857135639          54.0340139425      T2         A (1)
   72    72           1.9857135639          54.0340139425      T2         A (1)
   73    73           1.9857135639          54.0340139425      T2         A (1)
   74    74           2.2019059581          59.9169081613       E         A (1)
   75    75           2.2019059581          59.9169081614       E         A (1)
   76    76           2.3886504000          64.9984828463      A1         A (1)
   77    77           2.4706722357          67.2304104976      T2         A (1)
   78    78           2.4706722357          67.2304104976      T2         A (1)
   79    79           2.4706722357          67.2304104976      T2         A (1)
   80    80           2.5221963920          68.6324540904      T2         A (1)
   81    81           2.5221963920          68.6324540904      T2         A (1)
   82    82           2.5221963920          68.6324540905      T2         A (1)
   83    83           2.5749255234          70.0672867250      T1         A (1)
   84    84           2.5749255234          70.0672867251      T1         A (1)
   85    85           2.5749255234          70.0672867253      T1         A (1)
   86    86           2.5794385136          70.1900914320       E         A (1)
   87    87           2.5794385136          70.1900914321       E         A (1)
   88    88           2.7764055047          75.5498358266      T2         A (1)
   89    89           2.7764055047          75.5498358266      T2         A (1)
   90    90           2.7764055047          75.5498358270      T2         A (1)
   91    91           2.7949673256          76.0549286592      T1         A (1)
   92    92           2.7949673256          76.0549286592      T1         A (1)
   93    93           2.7949673256          76.0549286593      T1         A (1)
   94    94           3.0294997753          82.4368811663       E         A (1)
   95    95           3.0294997753          82.4368811666       E         A (1)
   96    96           3.1099735907          84.6266850456      A1         A (1)
   97    97           3.3424201899          90.9518786724      T2         A (1)
   98    98           3.3424201899          90.9518786725      T2         A (1)
   99    99           3.3424201899          90.9518786726      T2         A (1)
  100   100           3.7985212743         103.3630203431      A1         A (1)
  101   101           4.7542409598         129.3694755273      T1         A (1)
  102   102           4.7542409598         129.3694755274      T1         A (1)
  103   103           4.7542409598         129.3694755275      T1         A (1)
  104   104           4.7750268624         129.9350887012      T2         A (1)
  105   105           4.7750268624         129.9350887013      T2         A (1)
  106   106           4.7750268624         129.9350887014      T2         A (1)
  107   107           4.9326231603         134.2235020512       E         A (1)
  108   108           4.9326231603         134.2235020514       E         A (1)
  109   109           5.0208914614         136.6254046722      T2         A (1)
  110   110           5.0208914614         136.6254046722      T2         A (1)
  111   111           5.0208914614         136.6254046723      T2         A (1)
  112   112           5.0327526132         136.9481630265      T1         A (1)
  113   113           5.0327526132         136.9481630266      T1         A (1)
  114   114           5.0327526132         136.9481630267      T1         A (1)
  115   115           5.0535522532         137.5141500154      T2         A (1)
  116   116           5.0535522532         137.5141500154      T2         A (1)
  117   117           5.0535522532         137.5141500154      T2         A (1)
  118   118           5.2427667990         142.6629396435      A1         A (1)
  119   119           5.3056591140         144.3743265674       E         A (1)
  120   120           5.3056591140         144.3743265675       E         A (1)
  121   121           6.4080219947         174.3711460211       E         A (1)
  122   122           6.4080219947         174.3711460212       E         A (1)
  123   123           6.5698547080         178.7748380982      T2         A (1)
  124   124           6.5698547080         178.7748380983      T2         A (1)
  125   125           6.5698547080         178.7748380984      T2         A (1)
  126   126           7.8178112651         212.7334629640      A1         A (1)
  127   127           8.0605914171         219.3398468646      T2         A (1)
  128   128           8.0605914171         219.3398468648      T2         A (1)
  129   129           8.0605914171         219.3398468648      T2         A (1)
  130   130          14.0252818927         381.6473287588      A1         A (1)
  131   131          19.9634934821         543.2342835215      T2         A (1)
  132   132          19.9634934821         543.2342835216      T2         A (1)
  133   133          19.9634934821         543.2342835217      T2         A (1)
  134   134          19.9644705946         543.2608721049      A1         A (1)
  135   135          20.9112267164         569.0234163193       E         A (1)
  136   136          20.9112267164         569.0234163194       E         A (1)
  137   137          21.0708317069         573.3664889730      T2         A (1)
  138   138          21.0708317069         573.3664889730      T2         A (1)
  139   139          21.0708317069         573.3664889730      T2         A (1)
  140   140          71.1303080108        1935.5541124859      A1         A (1)
  141   141          71.1866271611        1937.0866345024      T2         A (1)
  142   142          71.1866271611        1937.0866345025      T2         A (1)
  143   143          71.1866271611        1937.0866345026      T2         A (1)


  VSCF finished.

  @CHECKOUT-I, Total execution time (CPU/WALL):       49.73/     176.03 seconds.
--executable xvscf finished with status     0 in      176.08 seconds (walltime).
  The final electronic energy is       -39.461340700938926 a.u. 
  This computation required                          493.49 seconds (walltime).
