[Molden Format]
[Atoms] (AU)
N    1    7         0.982657589101       0.996830535097       0.968484643104
N    2    7        -0.982657589101      -0.987381904433       0.987381904433
N    3    7        -0.982657589101       0.977933273768      -0.977933273768
N    4    7         0.982657589101      -0.987381904433      -0.977933273768
[GTO]
  1 0
 s    5  1.00
     1712.8415853000        -0.0053934100
      257.6481267700        -0.0402215800
       58.4582458500        -0.1793114500
       16.1983679100        -0.4637631800
        5.0052600800        -0.4417142300
 s    1  1.00
        0.5873185700         1.0000000000
 s    1  1.00
        0.1876459200         1.0000000000
 p    3  1.00
       13.5714702300        -0.0400724000
        2.9257372900        -0.2180704500
        0.7992775100        -0.5129446600
 p    1  1.00
        0.2195434800         1.0000000000
 d    1  1.00
        1.0000000000         1.0000000000

  2 0
 s    5  1.00
     1712.8415853000        -0.0053934100
      257.6481267700        -0.0402215800
       58.4582458500        -0.1793114500
       16.1983679100        -0.4637631800
        5.0052600800        -0.4417142300
 s    1  1.00
        0.5873185700         1.0000000000
 s    1  1.00
        0.1876459200         1.0000000000
 p    3  1.00
       13.5714702300        -0.0400724000
        2.9257372900        -0.2180704500
        0.7992775100        -0.5129446600
 p    1  1.00
        0.2195434800         1.0000000000
 d    1  1.00
        1.0000000000         1.0000000000

  3 0
 s    5  1.00
     1712.8415853000        -0.0053934100
      257.6481267700        -0.0402215800
       58.4582458500        -0.1793114500
       16.1983679100        -0.4637631800
        5.0052600800        -0.4417142300
 s    1  1.00
        0.5873185700         1.0000000000
 s    1  1.00
        0.1876459200         1.0000000000
 p    3  1.00
       13.5714702300        -0.0400724000
        2.9257372900        -0.2180704500
        0.7992775100        -0.5129446600
 p    1  1.00
        0.2195434800         1.0000000000
 d    1  1.00
        1.0000000000         1.0000000000

  4 0
 s    5  1.00
     1712.8415853000        -0.0053934100
      257.6481267700        -0.0402215800
       58.4582458500        -0.1793114500
       16.1983679100        -0.4637631800
        5.0052600800        -0.4417142300
 s    1  1.00
        0.5873185700         1.0000000000
 s    1  1.00
        0.1876459200         1.0000000000
 p    3  1.00
       13.5714702300        -0.0400724000
        2.9257372900        -0.2180704500
        0.7992775100        -0.5129446600
 p    1  1.00
        0.2195434800         1.0000000000
 d    1  1.00
        1.0000000000         1.0000000000

[5D]
[9G]

[MO]
 Sym= A
 Ene=       -15.7527331676
 Spin= Alpha
 Occup=  2.0000
  1       0.501621437205
  2      -0.017075488998
  3       0.004741355437
  4      -0.001181799039
  5      -0.001194832546
  6      -0.001169658984
  7      -0.001372707778
  8      -0.001374659506
  9      -0.001389474962
 10      -0.000017589007
 11       0.000418639289
 12       0.000423454183
 13      -0.000008501244
 14       0.000433034858
 15       0.506906673877
 16      -0.017211594737
 17       0.004735894676
 18       0.001186639466
 19       0.001192252252
 20      -0.001197908666
 21       0.001339864897
 22       0.001339589359
 23      -0.001388252634
 24      -0.000005068389
 25      -0.000427336447
 26      -0.000418309150
 27      -0.000000705893
 28       0.000421545415
 29       0.482849511099
 30      -0.016497916472
 31       0.004417721504
 32       0.001146362958
 33      -0.001138065201
 34       0.001139678390
 35       0.001351005231
 36      -0.001332607644
 37       0.001332621459
 38       0.000003256661
 39       0.000443118474
 40      -0.000437230234
 41       0.000001232422
 42      -0.000422876445
 43       0.490881379095
 44      -0.016723740843
 45       0.004475743184
 46      -0.001158744707
 47       0.001163817349
 48       0.001151554198
 49      -0.001337300187
 50       0.001331349933
 51       0.001313231149
 52       0.000002794331
 53      -0.000440368118
 54       0.000433063254
 55      -0.000001842452
 56      -0.000417003145
 Sym= A
 Ene=       -15.7520708139
 Spin= Alpha
 Occup=  2.0000
  1       0.589488012646
  2      -0.019374982130
  3       0.014826784044
  4      -0.001342907998
  5      -0.001359113330
  6      -0.001219810499
  7      -0.003541486880
  8      -0.003726308045
  9      -0.001545721866
 10       0.000368929549
 11      -0.000033157442
 12      -0.000064977285
 13       0.000023480399
 14      -0.000606262596
 15      -0.781909854633
 16       0.025649340747
 17      -0.019748006673
 18      -0.001737453209
 19      -0.001751638246
 20       0.001704218977
 21      -0.004192053800
 22      -0.004364214539
 23       0.003182725742
 24      -0.000193495622
 25      -0.000215495557
 26      -0.000255601240
 27      -0.000024930552
 28       0.000522662279
 29       0.133750654316
 30      -0.004409216559
 31       0.003326062681
 32       0.000179278239
 33      -0.000396220074
 34       0.000310515608
 35      -0.001065425285
 36      -0.002152756035
 37       0.000927899299
 38      -0.000075857413
 39       0.000372436992
 40       0.000544139416
 41       0.000525062798
 42      -0.000018917972
 43       0.073484229549
 44      -0.002411767690
 45       0.001742869659
 46      -0.000258053838
 47       0.000046610159
 48       0.000188396955
 49      -0.001765644034
 50      -0.001453343157
 51       0.000713262365
 52      -0.000106795025
 53       0.000528674489
 54       0.000371936590
 55      -0.000521479569
 56      -0.000073315709
 Sym= A
 Ene=       -15.7520464447
 Spin= Alpha
 Occup=  2.0000
  1       0.494229832964
  2      -0.016219697433
  3       0.012552356351
  4      -0.001008604589
  5      -0.001135952115
  6      -0.001169067973
  7      -0.000998513811
  8      -0.002900393269
  9      -0.003522089135
 10      -0.000301122189
 11      -0.000117990355
 12      -0.000636725641
 13       0.000301848250
 14       0.000091385466
 15       0.296058634080
 16      -0.009692725391
 17       0.007487877936
 18       0.000675766430
 19       0.000552506814
 20      -0.000753904179
 21       0.001711847710
 22      -0.000181314951
 23      -0.002852351576
 24      -0.000390605650
 25       0.000591358727
 26       0.000064995485
 27      -0.000305177001
 28       0.000253811632
 29      -0.004484454032
 30       0.000142374752
 31       0.000018381598
 32       0.000028040492
 33      -0.000068261967
 34      -0.000140376472
 35       0.000694805686
 36      -0.001188511512
 37      -0.001840748734
 38       0.000526025998
 39       0.000336663212
 40      -0.000191684856
 41       0.000081061217
 42       0.000533986403
 43      -0.806363248994
 44       0.026484171285
 45      -0.020252582841
 46       0.001763548732
 47      -0.001799179707
 48      -0.001835240453
 49       0.003464161877
 50      -0.003952097161
 51      -0.004596365967
 52       0.000171015416
 53      -0.000359141020
 54       0.000489913797
 55      -0.000076829604
 56      -0.000162617854
 Sym= A
 Ene=       -15.7520275848
 Spin= Alpha
 Occup=  2.0000
  1       0.372698773798
  2      -0.012217595098
  3       0.009509047802
  4      -0.000911892653
  5      -0.000722513131
  6      -0.000885658824
  7      -0.002876396927
  8      -0.000185425887
  9      -0.002539540030
 10      -0.000199699986
 11      -0.000668344387
 12       0.000103862701
 13      -0.000450067417
 14       0.000021788712
 15       0.162221958723
 16      -0.005309411495
 17       0.004209453216
 18       0.000239864157
 19       0.000418327931
 20      -0.000429046977
 21      -0.001027427621
 22       0.001662028657
 23      -0.001827349050
 24      -0.000283348028
 25      -0.000157761830
 26       0.000595639499
 27       0.000429892907
 28       0.000203358472
 29      -0.855112915584
 30       0.028120790350
 31      -0.021541980661
 32      -0.001951792185
 33       0.001882568621
 34      -0.001926242404
 35      -0.004540952050
 36       0.004006611399
 37      -0.004213286872
 38      -0.000004059047
 39       0.000442857824
 40      -0.000276849599
 41       0.000094819916
 42      -0.000363247271
 43       0.292748500947
 44      -0.009611483926
 45       0.007557362932
 46      -0.000726413243
 47       0.000694863091
 48       0.000535572442
 49      -0.002606877363
 50       0.002117366601
 51      -0.000243682207
 52       0.000485593174
 53      -0.000044371284
 54       0.000183378959
 55      -0.000082489971
 56       0.000624471916
 Sym= A
 Ene=        -1.6678050154
 Spin= Alpha
 Occup=  2.0000
  1       0.130043059497
  2       0.262056207690
  3       0.070310185236
  4       0.078555705445
  5       0.078620713732
  6       0.078461213240
  7      -0.021833500401
  8      -0.022034609373
  9      -0.021635807110
 10      -0.000183652689
 11       0.013337432433
 12       0.013386508268
 13      -0.000104447160
 14       0.013439864719
 15       0.129180230214
 16       0.260399818333
 17       0.069257772876
 18      -0.077406159724
 19      -0.077906440469
 20       0.078820391612
 21       0.021443280894
 22       0.021443294997
 23      -0.021655902883
 24       0.000114500635
 25      -0.013385527239
 26      -0.013423751588
 27      -0.000102250246
 28       0.013219810532
 29       0.130905774584
 30       0.263708974774
 31       0.071429510205
 32      -0.079690965034
 33       0.078243584607
 34      -0.079172960863
 35       0.022253694662
 36      -0.022024943999
 37       0.022248103971
 38      -0.000033505047
 39       0.013558875057
 40      -0.013350324035
 41       0.000153355792
 42      -0.013387926846
 43       0.130031977575
 44       0.262033653272
 45       0.070330968396
 46       0.078540547851
 47      -0.079041545929
 48      -0.078023537546
 49      -0.021840622767
 50       0.021845469780
 51       0.021839937476
 52      -0.000180114535
 53      -0.013350342937
 54       0.013386345361
 55      -0.000103815622
 56      -0.013426199126
 Sym= A
 Ene=        -1.0459087254
 Spin= Alpha
 Occup=  2.0000
  1       0.159543384624
  2       0.338199414880
  3       0.307847982027
  4       0.029925569418
  5      -0.102398340214
  6       0.094465456912
  7      -0.042949897953
  8      -0.008858351293
  9      -0.059966795830
 10       0.012958832573
 11       0.014161696196
 12       0.000035409548
 13       0.011436077749
 14      -0.007102153153
 15      -0.171029028593
 16      -0.362431368947
 17      -0.329760795824
 18       0.034343069840
 19      -0.095789196565
 20      -0.082497616436
 21      -0.046534939226
 22      -0.012898764795
 23       0.059909634473
 24      -0.011380075547
 25       0.013532031423
 26      -0.000551175294
 27      -0.011250437963
 28       0.005738385838
 29       0.093533230469
 30       0.198287508708
 31       0.180948308410
 32      -0.107923974590
 33      -0.139421849706
 34      -0.041943422136
 35       0.049080655710
 36       0.015627939448
 37       0.031688543249
 38       0.005592212459
 39       0.016640117831
 40       0.010141342514
 41       0.021341521777
 42       0.003135890371
 43      -0.083400921648
 44      -0.176695745550
 45      -0.161631297245
 46      -0.100691963428
 47      -0.142962025432
 48       0.053131332857
 49       0.045006042844
 50       0.018489858551
 51      -0.032499933855
 52      -0.007458625934
 53       0.017011400601
 54       0.009228177313
 55      -0.021216259995
 56      -0.004078223541
 Sym= A
 Ene=        -1.0424697756
 Spin= Alpha
 Occup=  2.0000
  1       0.043941946650
  2       0.093154250892
  3       0.085551019964
  4      -0.156330332660
  5       0.080796631404
  6       0.080153732330
  7       0.031303560830
  8      -0.030879981017
  9      -0.031157713263
 10       0.011710263247
 11      -0.007815545220
 12       0.017620186129
 13      -0.020554969178
 14      -0.008020267832
 15      -0.121146081609
 16      -0.256828100266
 17      -0.234950210140
 18      -0.115325137097
 19       0.120427272161
 20      -0.007436614867
 21       0.003504403735
 22      -0.058413101444
 23       0.029117684919
 24      -0.000409005333
 25      -0.010913871202
 26       0.014591336085
 27       0.020344320611
 28      -0.001251665515
 29      -0.120553165208
 30      -0.255549206485
 31      -0.235525750873
 32      -0.115740596559
 33      -0.006472223016
 34       0.122150247231
 35       0.003219412126
 36       0.028621418883
 37      -0.059511661393
 38      -0.017663059108
 39      -0.001426818272
 40       0.014506437908
 41       0.010668652745
 42      -0.011069693196
 43       0.197758956235
 44       0.419227054188
 45       0.384934575470
 46      -0.074708425076
 47      -0.048812443359
 48      -0.046700146119
 49      -0.024592242275
 50       0.057313115171
 51       0.056322808939
 52       0.005826976016
 53       0.001774793992
 54       0.011474852103
 55      -0.010763803259
 56       0.001686197638
 Sym= A
 Ene=        -1.0390812703
 Spin= Alpha
 Occup=  2.0000
  1       0.159064752931
  2       0.337222914649
  3       0.312275198266
  4       0.024808852804
  5       0.091891495642
  6      -0.105158231464
  7      -0.042737440762
  8      -0.060360369128
  9      -0.007784119769
 10      -0.016394153915
 11      -0.007488999312
 12      -0.000427609211
 13      -0.005882183313
 14       0.013732226363
 15       0.094603186166
 16       0.200543943534
 17       0.185231085448
 18      -0.106231334129
 19      -0.040492058691
 20      -0.137430560522
 21       0.049366047246
 22       0.032094993210
 23       0.015141657892
 24      -0.021186854841
 25       0.002511135999
 26       0.009704637649
 27       0.005567440950
 28       0.016462206114
 29      -0.170919639230
 30      -0.362469405750
 31      -0.335813383141
 32       0.032752919348
 33      -0.081613649794
 34      -0.099415249606
 35      -0.047635436152
 36       0.059778772993
 37      -0.012219189357
 38       0.015616414577
 39       0.006050238194
 40      -0.000769416556
 41       0.004163270037
 42       0.013436209215
 43      -0.081385584631
 44      -0.172633532017
 45      -0.159065892563
 46      -0.101085540016
 47       0.051663285472
 48      -0.146217876130
 49       0.044967244351
 50      -0.031936656304
 51       0.020760688586
 52       0.022095100152
 53      -0.004373502933
 54       0.009679236813
 55      -0.004244116237
 56       0.017031416026
 Sym= A
 Ene=        -0.6940951956
 Spin= Alpha
 Occup=  2.0000
  1       0.064209716805
  2       0.128755296367
  3       0.184245837718
  4      -0.167068802728
  5      -0.169439568442
  6      -0.164707758469
  7       0.080981156247
  8       0.082462716215
  9       0.079514653682
 10       0.000469049895
 11      -0.020372824655
 12      -0.020774417574
 13       0.000274707239
 14      -0.021180194603
 15       0.064196874104
 16       0.128784850675
 17       0.184643111382
 18       0.165320508084
 19       0.166201503100
 20      -0.166144503866
 21      -0.080035373539
 22      -0.080272742787
 23       0.080102949135
 24      -0.000087345228
 25       0.020609388998
 26       0.020724290298
 27       0.000096166291
 28      -0.020732046159
 29       0.064207662497
 30       0.128690034084
 31       0.183767674998
 32       0.168841874560
 33      -0.167971253206
 34       0.167979847952
 35      -0.081970098154
 36       0.081870440035
 37      -0.081739537484
 38       0.000033213723
 39      -0.020834289018
 40       0.020834642214
 41      -0.000131966053
 42       0.020949400055
 43       0.064207871148
 44       0.128747860182
 45       0.184236180982
 46      -0.167045719475
 47       0.167945451448
 48       0.166202428567
 49       0.080971931027
 50      -0.081225906143
 51      -0.080757923677
 52       0.000163817779
 53       0.020663360459
 54      -0.020781534029
 55       0.000098083146
 56       0.020892972956
 Sym= A
 Ene=        -0.5780909142
 Spin= Alpha
 Occup=  2.0000
  1       0.072103116864
  2       0.167306801184
  3       0.125725667557
  4      -0.041580167718
  5      -0.031746315212
  6      -0.295834688437
  7       0.048408455638
  8       0.043294309153
  9       0.185619765914
 10      -0.023970530993
 11      -0.008171581631
 12      -0.007409791549
 13      -0.000381072524
 14       0.004082073010
 15      -0.118341556085
 16      -0.274897390253
 17      -0.206075858901
 18      -0.165638933498
 19      -0.169553808306
 20       0.260841288842
 21       0.131518527005
 22       0.134618344599
 23      -0.183442892430
 24       0.008396986761
 25      -0.007156052846
 26      -0.007713123207
 27       0.000057540297
 28       0.003296754632
 29       0.023756939846
 30       0.055044478770
 31       0.041603491756
 32       0.245996141346
 33       0.110643360376
 34      -0.015890420740
 35      -0.141632429828
 36      -0.051194753260
 37       0.000416688935
 38       0.007848620132
 39      -0.008017851463
 40      -0.008323084352
 41      -0.028292766431
 42       0.003473002902
 43       0.021964631617
 44       0.050887266917
 45       0.038790123131
 46       0.105521628389
 47       0.234719719980
 48      -0.022413590743
 49      -0.048883063297
 50      -0.133687525419
 51       0.004497377400
 52       0.008068494431
 53      -0.007705171342
 54      -0.006955987676
 55       0.027902963175
 56       0.003595005046
 Sym= A
 Ene=        -0.5769757201
 Spin= Alpha
 Occup=  2.0000
  1       0.070518817725
  2       0.163822188682
  3       0.122159655196
  4      -0.294426346947
  5      -0.028697956739
  6      -0.033273647683
  7       0.184944173213
  8       0.041388015999
  9       0.043438120704
 10       0.012514799895
 11      -0.007892135617
 12       0.004335140145
 13      -0.020862399139
 14      -0.007090376278
 15       0.026094743864
 16       0.060617284497
 17       0.045531300216
 18      -0.013066357909
 19       0.236850450899
 20       0.095588745818
 21      -0.002572600009
 22      -0.136368436744
 23      -0.042053790246
 24       0.019976127511
 25      -0.006974712596
 26       0.003864402933
 27       0.020451437043
 28      -0.006983457547
 29       0.021892324893
 30       0.050859245989
 31       0.037569680495
 32      -0.022576274608
 33       0.113370390195
 34       0.250193552165
 35       0.004238647472
 36      -0.053511387035
 37      -0.144416988948
 38      -0.028767995701
 39      -0.008418594156
 40       0.003669958749
 41      -0.006698896178
 42      -0.008727489953
 43      -0.118496317535
 44      -0.275309365485
 45      -0.205156120624
 46       0.256074340167
 47      -0.181894654774
 48      -0.160635050022
 49      -0.181596102266
 50       0.142518882890
 51       0.129124708637
 52      -0.004826468240
 53      -0.006377762029
 54       0.003480148598
 55       0.006344536962
 56      -0.008045574177
 Sym= A
 Ene=        -0.5757965438
 Spin= Alpha
 Occup=  2.0000
  1       0.070411783194
  2       0.163803216408
  3       0.120961822307
  4      -0.025378330001
  5      -0.292838785887
  6      -0.032879083957
  7       0.039764217931
  8       0.184687419038
  9       0.043591702449
 10       0.011993928894
 11       0.004325080163
 12      -0.007496680227
 13       0.021237779789
 14      -0.006882999077
 15       0.023706847486
 16       0.055220269298
 17       0.040597883436
 18       0.240735622152
 19      -0.018715754451
 20       0.101614479023
 21      -0.138864010144
 22       0.000955590063
 23      -0.046317319958
 24       0.019928234193
 25       0.004000190583
 26      -0.007470704935
 27      -0.020863721999
 28      -0.007455280075
 29      -0.118225674398
 30      -0.274741076462
 31      -0.203380213626
 32      -0.174852716687
 33       0.254485795691
 34      -0.170175076226
 35       0.138879630878
 36      -0.181460951803
 37       0.135424113509
 38      -0.003973950523
 39       0.003433368613
 40      -0.006809193373
 41      -0.006791272574
 42      -0.007356354001
 43       0.024620234857
 44       0.057354366936
 45       0.041787911578
 46       0.106911888707
 47      -0.014632829630
 48       0.250241135879
 49      -0.048965553314
 50      -0.001541554827
 51      -0.145509859074
 52      -0.028286604081
 53       0.003896530391
 54      -0.008371264639
 55       0.007086685093
 56      -0.008073137732
 Sym= A
 Ene=        -0.5497423410
 Spin= Alpha
 Occup=  2.0000
  1       0.002080092501
  2       0.005464349341
  3       0.001287239094
  4       0.185942007382
  5      -0.258256568466
  6       0.066013729486
  7      -0.122171295216
  8       0.172421785461
  9      -0.042640408288
 10       0.002423909920
 11       0.025994454817
 12      -0.019170325638
 13       0.009076818592
 14      -0.006965681240
 15      -0.001232768305
 16      -0.002726163541
 17      -0.002021236757
 18      -0.196685410752
 19       0.263609653511
 20       0.074892865457
 21       0.130274031292
 22      -0.173749168803
 23      -0.049691728328
 24       0.003043044649
 25      -0.026507757046
 26       0.019317773100
 27       0.010131248968
 28      -0.007108029675
 29       0.001171815566
 30       0.003224704366
 31       0.000332787662
 32      -0.186928385260
 33      -0.256051147848
 34      -0.062042682983
 35       0.123385158301
 36       0.170947000333
 37       0.040582221231
 38       0.001656303790
 39       0.025866189207
 40       0.019452513624
 41       0.008662701505
 42       0.007145606630
 43      -0.002241964451
 44      -0.005199162879
 45      -0.003119805817
 46       0.197593436402
 47       0.259800916672
 48      -0.076267805828
 49      -0.131508664851
 50      -0.171208453422
 51       0.051198946311
 52       0.002939387108
 53      -0.026513933864
 54      -0.019321118661
 55       0.010070484613
 56       0.006797644605
 Sym= A
 Ene=        -0.5444310916
 Spin= Alpha
 Occup=  2.0000
  1       0.001754294233
  2       0.004712747126
  3       0.000708870378
  4      -0.194071443077
  5      -0.072820583350
  6       0.262529462279
  7       0.130939786446
  8       0.049811429660
  9      -0.174592757573
 10       0.009462811848
 11       0.007115410481
 12       0.019262685621
 13      -0.002499058018
 14      -0.026450223307
 15       0.001003633814
 16       0.002835195770
 17       0.000082213482
 18       0.193881203382
 19       0.076297052046
 20       0.264218581272
 21      -0.130208680986
 22      -0.051609357747
 23      -0.175696070402
 24       0.010157833465
 25      -0.006884923113
 26      -0.018977451554
 27      -0.002140035621
 28      -0.026572872850
 29      -0.001135066860
 30      -0.002489327456
 31      -0.001884082704
 32       0.184986591690
 33      -0.065359958306
 34      -0.257617972560
 35      -0.123849070084
 36       0.043667169421
 37       0.173212796283
 38       0.008413102313
 39       0.006955317837
 40      -0.019127854791
 41      -0.002530390078
 42       0.026040634047
 43      -0.001816116641
 44      -0.004207170627
 45      -0.002412239105
 46      -0.184744224142
 47       0.064069798699
 48      -0.260469223184
 49       0.123136886465
 50      -0.042290997522
 51       0.175094830907
 52       0.008470711579
 53      -0.007242142477
 54       0.019091532272
 55      -0.002521391283
 56       0.026026836317
 Sym= A
 Ene=         0.1840024909
 Spin= Alpha
 Occup=  0.0000
  1       0.003962282336
  2       0.009408602021
  3       0.029963098608
  4       0.257664051932
  5       0.105494392839
  6      -0.343298200741
  7      -0.376705940472
  8      -0.157205482608
  9       0.490919078251
 10      -0.000399340185
 11       0.003230128929
 12       0.007585821925
 13       0.000080483198
 14      -0.009750327855
 15      -0.003308066168
 16      -0.007773564396
 17      -0.025875028340
 18       0.180548219737
 19       0.185190409850
 20       0.341976044214
 21      -0.265675707268
 22      -0.271411979775
 23      -0.490115415146
 24       0.000033021861
 25       0.005334767705
 26       0.005428535941
 27       0.000040279523
 28       0.010068433109
 29      -0.000710034096
 30      -0.001698839390
 31      -0.005191619394
 32      -0.168127457630
 33      -0.096554192157
 34       0.076905487510
 35       0.235588559248
 36       0.134312673655
 37      -0.111374438017
 38       0.000097325049
 39      -0.002073198582
 40      -0.003923868227
 41       0.000491034986
 42       0.001994249335
 43       0.000067050318
 44       0.000108918385
 45       0.001111858052
 46      -0.245691815491
 47      -0.174332105333
 48      -0.071913779030
 49       0.346898706335
 50       0.245910734338
 51       0.102524200931
 52       0.000211303859
 53      -0.004203262538
 54      -0.006216089134
 55      -0.000603435825
 56      -0.002026800257
 Sym= A
 Ene=         0.1860396972
 Spin= Alpha
 Occup=  0.0000
  1       0.000734197496
  2       0.001740569570
  3       0.005603824759
  4      -0.006894563892
  5       0.046097907115
  6      -0.035514228290
  7       0.007631106480
  8      -0.066650102397
  9       0.050977500968
 10      -0.000231216784
 11       0.001068615960
 12       0.000340253812
 13       0.000288507184
 14      -0.001214625915
 15      -0.000524149313
 16      -0.001099765169
 17      -0.005680061731
 18      -0.262768010376
 19       0.302266516542
 20       0.035545525480
 21       0.376189980898
 22      -0.436095467424
 23      -0.050882337141
 24       0.000011521259
 25       0.008340698250
 26      -0.007134649316
 27       0.000166859653
 28       0.001091848338
 29      -0.000532362035
 30      -0.001120238539
 31      -0.005815500165
 32       0.265768557372
 33      -0.046137518145
 34      -0.307812513411
 35      -0.385961181222
 36       0.066941224829
 37       0.443600673716
 38       0.000487823438
 39      -0.001196720115
 40       0.007712753376
 41      -0.000193039285
 42      -0.008800398839
 43       0.000322165422
 44       0.000478893457
 45       0.005891615382
 46       0.010543338726
 47      -0.301118920000
 48       0.308872698077
 49      -0.017718357889
 50       0.434956834852
 51      -0.444651277982
 52      -0.000260185805
 53      -0.008397995354
 54       0.000432966614
 55      -0.000304329071
 56       0.008760138659
 Sym= A
 Ene=         0.1878741601
 Spin= Alpha
 Occup=  0.0000
  1       0.003893378515
  2       0.009217449166
  3       0.029957325960
  4      -0.251498304441
  5       0.348284302551
  6      -0.077189986524
  7       0.357329664064
  8      -0.506495820863
  9       0.106193281721
 10      -0.000057104248
 11       0.009690045306
 12      -0.006761115329
 13      -0.000362838469
 14      -0.001912059221
 15      -0.000841900149
 16      -0.002056592990
 17      -0.005733049438
 18       0.177609740411
 19      -0.086521974159
 20       0.085430909090
 21      -0.262660819387
 22       0.124148706513
 23      -0.127768032830
 24      -0.000267554377
 25      -0.002578319311
 26       0.005761782852
 27      -0.000164144519
 28       0.003005799945
 29      -0.003086063563
 30      -0.007224101914
 31      -0.024842906394
 32      -0.165615066283
 33      -0.348769728647
 34      -0.160830969009
 35       0.233302421718
 36       0.505461768978
 37       0.227427328128
 38       0.000302967444
 39      -0.009334965554
 40      -0.004317361512
 41       0.000635141525
 42      -0.004383172149
 43       0.000024033259
 44       0.000021394246
 45       0.000612806752
 46       0.263088932034
 47       0.091971380237
 48       0.170861206178
 49      -0.386541649396
 50      -0.134181119830
 51      -0.251547978436
 52       0.000013127317
 53       0.002579371833
 54       0.008061546624
 55      -0.000092145063
 56       0.005476798979
 Sym= A
 Ene=         0.2825668347
 Spin= Alpha
 Occup=  0.0000
  1       0.114632798034
  2       0.271704837922
  3       1.108274463856
  4       0.188431056212
  5       0.230281060121
  6       0.118725825742
  7      -0.537594368929
  8      -0.723583659669
  9      -0.202228956151
 10       0.008264872175
 11       0.021723836678
 12       0.011828066612
 13       0.003306528167
 14      -0.008066391964
 15      -0.145707065238
 16      -0.344244540377
 17      -1.414647494703
 18       0.222963191713
 19       0.267833449573
 20      -0.199947533819
 21      -0.613154285784
 22      -0.802789021947
 23       0.468426248563
 24      -0.005293736288
 25       0.020454764126
 26       0.010272720061
 27      -0.003102997159
 28      -0.000454904443
 29       0.048923662671
 30       0.116260344421
 31       0.471644354967
 32       0.013970332556
 33       0.168642834918
 34      -0.074297301986
 35      -0.167072071126
 36      -0.589571261116
 37       0.203383425925
 38       0.000007385141
 39       0.024342518352
 40       0.017171921786
 41       0.012326203894
 42      -0.003322401721
 43      -0.017096523586
 44      -0.040470115584
 45      -0.165583927938
 46       0.047335870072
 47       0.130837019287
 48      -0.003225595866
 49      -0.236846163603
 50      -0.508759915445
 51       0.052572914936
 52      -0.003723742479
 53       0.025202763706
 54       0.015975939892
 55      -0.012201352638
 56      -0.005476966589
 Sym= A
 Ene=         0.2859250015
 Spin= Alpha
 Occup=  0.0000
  1       0.034489275663
  2       0.081399757824
  3       0.340008113222
  4      -0.044352580350
  5       0.105429785976
  6       0.101240222779
  7       0.284150994443
  8      -0.369030452130
  9      -0.364140663863
 10      -0.005941134973
 11       0.014114947526
 12      -0.021815179153
 13       0.011001109295
 14       0.015050312015
 15       0.067493221644
 16       0.158876101145
 17       0.667411242068
 18      -0.161604312526
 19      -0.013002290420
 20       0.145310735587
 21       0.537077683277
 22      -0.111482933669
 23      -0.458147498090
 24      -0.004494404629
 25       0.017707090266
 26      -0.018222670921
 27      -0.010895117021
 28       0.013797908270
 29       0.063829875278
 30       0.151138599125
 31       0.626445740094
 32      -0.156233233421
 33       0.132803678717