[Molden Format]
[Title]
N4                                                                              
[Atoms] AU
 n     1    7 0.12141712962000E+01 0.00000000000000E+00 0.11929119035000E+01
 n     2    7 -.13902703010000E+01 0.80233672640000E+00 0.58212322750000E+00
 n     3    7 0.58082277020000E+00 0.80233672640000E+00 -.13773978299000E+01
 n     4    7 -.40472376540000E+00 -.16046734527000E+01 -.39763730120000E+00
[GTO]
    1 0
 s    8 1.00
 0.11420000000000E+05 0.53498091442024E-03
 0.17120000000000E+04 0.41376630952770E-02
 0.38930000000000E+03 0.21250914908376E-01
 0.11000000000000E+03 0.82576298811478E-01
 0.35570000000000E+02 0.23841327274873E+00
 0.12540000000000E+02 0.44343166612254E+00
 0.46440000000000E+01 0.35543190878667E+00
 0.51180000000000E+00 -.87029017588670E-02
 s    8 1.00
 0.11420000000000E+05 -.19877698518043E-03
 0.17120000000000E+04 -.15470034933607E-02
 0.38930000000000E+03 -.79925632997766E-02
 0.11000000000000E+03 -.32025565055852E-01
 0.35570000000000E+02 -.99110204810962E-01
 0.12540000000000E+02 -.22829277473644E+00
 0.46440000000000E+01 -.29818276272588E+00
 0.51180000000000E+00 0.10370005182355E+01
 s    1 1.00
 0.12930000000000E+01 0.10000000000000E+01
 s    1 1.00
 0.17870000000000E+00 0.10000000000000E+01
 p    3 1.00
 0.26630000000000E+02 0.39807212297268E-01
 0.59480000000000E+01 0.24900266048033E+00
 0.17420000000000E+01 0.81047972669290E+00
 p    1 1.00
 0.55500000000000E+00 0.10000000000000E+01
 p    1 1.00
 0.17250000000000E+00 0.10000000000000E+01
 d    1 1.00
 0.16540000000000E+01 0.10000000000000E+01
 d    1 1.00
 0.46900000000000E+00 0.10000000000000E+01
 f    1 1.00
 0.10930000000000E+01 0.10000000000000E+01
 
    2 0
 s    8 1.00
 0.11420000000000E+05 0.53498091442024E-03
 0.17120000000000E+04 0.41376630952770E-02
 0.38930000000000E+03 0.21250914908376E-01
 0.11000000000000E+03 0.82576298811478E-01
 0.35570000000000E+02 0.23841327274873E+00
 0.12540000000000E+02 0.44343166612254E+00
 0.46440000000000E+01 0.35543190878667E+00
 0.51180000000000E+00 -.87029017588670E-02
 s    8 1.00
 0.11420000000000E+05 -.19877698518043E-03
 0.17120000000000E+04 -.15470034933607E-02
 0.38930000000000E+03 -.79925632997766E-02
 0.11000000000000E+03 -.32025565055852E-01
 0.35570000000000E+02 -.99110204810962E-01
 0.12540000000000E+02 -.22829277473644E+00
 0.46440000000000E+01 -.29818276272588E+00
 0.51180000000000E+00 0.10370005182355E+01
 s    1 1.00
 0.12930000000000E+01 0.10000000000000E+01
 s    1 1.00
 0.17870000000000E+00 0.10000000000000E+01
 p    3 1.00
 0.26630000000000E+02 0.39807212297268E-01
 0.59480000000000E+01 0.24900266048033E+00
 0.17420000000000E+01 0.81047972669290E+00
 p    1 1.00
 0.55500000000000E+00 0.10000000000000E+01
 p    1 1.00
 0.17250000000000E+00 0.10000000000000E+01
 d    1 1.00
 0.16540000000000E+01 0.10000000000000E+01
 d    1 1.00
 0.46900000000000E+00 0.10000000000000E+01
 f    1 1.00
 0.10930000000000E+01 0.10000000000000E+01
 
    3 0
 s    8 1.00
 0.11420000000000E+05 0.53498091442024E-03
 0.17120000000000E+04 0.41376630952770E-02
 0.38930000000000E+03 0.21250914908376E-01
 0.11000000000000E+03 0.82576298811478E-01
 0.35570000000000E+02 0.23841327274873E+00
 0.12540000000000E+02 0.44343166612254E+00
 0.46440000000000E+01 0.35543190878667E+00
 0.51180000000000E+00 -.87029017588670E-02
 s    8 1.00
 0.11420000000000E+05 -.19877698518043E-03
 0.17120000000000E+04 -.15470034933607E-02
 0.38930000000000E+03 -.79925632997766E-02
 0.11000000000000E+03 -.32025565055852E-01
 0.35570000000000E+02 -.99110204810962E-01
 0.12540000000000E+02 -.22829277473644E+00
 0.46440000000000E+01 -.29818276272588E+00
 0.51180000000000E+00 0.10370005182355E+01
 s    1 1.00
 0.12930000000000E+01 0.10000000000000E+01
 s    1 1.00
 0.17870000000000E+00 0.10000000000000E+01
 p    3 1.00
 0.26630000000000E+02 0.39807212297268E-01
 0.59480000000000E+01 0.24900266048033E+00
 0.17420000000000E+01 0.81047972669290E+00
 p    1 1.00
 0.55500000000000E+00 0.10000000000000E+01
 p    1 1.00
 0.17250000000000E+00 0.10000000000000E+01
 d    1 1.00
 0.16540000000000E+01 0.10000000000000E+01
 d    1 1.00
 0.46900000000000E+00 0.10000000000000E+01
 f    1 1.00
 0.10930000000000E+01 0.10000000000000E+01
 
    4 0
 s    8 1.00
 0.11420000000000E+05 0.53498091442024E-03
 0.17120000000000E+04 0.41376630952770E-02
 0.38930000000000E+03 0.21250914908376E-01
 0.11000000000000E+03 0.82576298811478E-01
 0.35570000000000E+02 0.23841327274873E+00
 0.12540000000000E+02 0.44343166612254E+00
 0.46440000000000E+01 0.35543190878667E+00
 0.51180000000000E+00 -.87029017588670E-02
 s    8 1.00
 0.11420000000000E+05 -.19877698518043E-03
 0.17120000000000E+04 -.15470034933607E-02
 0.38930000000000E+03 -.79925632997766E-02
 0.11000000000000E+03 -.32025565055852E-01
 0.35570000000000E+02 -.99110204810962E-01
 0.12540000000000E+02 -.22829277473644E+00
 0.46440000000000E+01 -.29818276272588E+00
 0.51180000000000E+00 0.10370005182355E+01
 s    1 1.00
 0.12930000000000E+01 0.10000000000000E+01
 s    1 1.00
 0.17870000000000E+00 0.10000000000000E+01
 p    3 1.00
 0.26630000000000E+02 0.39807212297268E-01
 0.59480000000000E+01 0.24900266048033E+00
 0.17420000000000E+01 0.81047972669290E+00
 p    1 1.00
 0.55500000000000E+00 0.10000000000000E+01
 p    1 1.00
 0.17250000000000E+00 0.10000000000000E+01
 d    1 1.00
 0.16540000000000E+01 0.10000000000000E+01
 d    1 1.00
 0.46900000000000E+00 0.10000000000000E+01
 f    1 1.00
 0.10930000000000E+01 0.10000000000000E+01
 
[MO]
 Sym=     1a   
 Ene= -.15750876115755E+02
 Spin= Alpha
 Occup= 2.000000
     1 0.49252553640753E+00
     2 0.59350037116326E-03
     3 0.20567877541248E-01
     4 0.78027220196082E-03
     5 -.12451284603481E-02
     6 0.14632597109510E-06
     7 -.12430854838796E-02
     8 0.31046872775911E-03
     9 0.26396744756307E-05
    10 0.26176707180502E-03
    11 -.20630648547458E-03
    12 0.56333889318435E-06
    13 -.21340162692253E-03
    14 0.31466763900504E-04
    15 -.73245280685156E-04
    16 0.41778516784651E-04
    17 0.15021920122517E-05
    18 0.12674737754103E-03
    19 -.20305846305941E-05
    20 -.18516998523771E-04
    21 0.21249167823037E-04
    22 -.27321692992663E-05
    23 0.17296846725195E-05
    24 -.37124435521778E-04
    25 -.30351228477272E-05
    26 -.14867136719230E-05
    27 -.37631846262536E-06
    28 -.22879861910115E-05
    29 -.51336490329478E-05
    30 0.14229376888012E-06
    31 0.79642090407696E-05
    32 0.71282847330466E-05
    33 0.36259042929099E-06
    34 -.48945534479601E-05
    35 -.13770792379780E-06
    36 0.46562380061031E+00
    37 0.64015267812844E-03
    38 0.19399064215853E-01
    39 0.83524978874640E-03
    40 0.13381017090313E-02
    41 -.77760911527885E-03
    42 -.56916064568696E-03
    43 -.21756466600842E-03
    44 0.14488897525261E-03
    45 0.83337156796689E-04
    46 0.27480164817319E-03
    47 -.15483573626773E-03
    48 -.11717167808974E-03
    49 0.68953083419514E-04
    50 -.24775584217340E-04
    51 -.44177499202174E-04
    52 -.92805394840791E-04
    53 -.71308053141968E-04
    54 0.39550617750962E-04
    55 -.31365479269781E-05
    56 -.31605422043011E-05
    57 0.62970901312791E-05
    58 0.11784067247297E-04
    59 0.31961502996084E-05
    60 -.63602524901429E-05
    61 -.28695962868435E-06
    62 -.37594662923321E-05
    63 -.36587148555405E-05
    64 -.21404690694562E-05
    65 0.56900525391813E-05
    66 0.44731158893624E-05
    67 0.25254658113780E-05
    68 -.64619922591710E-06
    69 0.43556518700368E-06
    70 -.49248109897665E-05
    71 0.51132863075633E+00
    72 0.56027865629873E-03
    73 0.21387235909955E-01
    74 0.74185534890214E-03
    75 -.62185816201126E-03
    76 -.86656223427662E-03
    77 0.14976211600076E-02
    78 0.18657142699769E-03
    79 0.22395995731920E-03
    80 -.40422860804697E-03
    81 -.87926718647295E-04
    82 -.12915600234617E-03
    83 0.21923750667522E-03
    84 -.50759877758744E-04
    85 -.24586500527887E-04
    86 0.75346378286631E-04
    87 0.41252641642004E-04
    88 -.68324676945785E-04
    89 -.10078771902722E-03
    90 0.18211618958669E-04
    91 0.13563463072867E-04
    92 -.31775082031536E-04
    93 -.17015257649514E-04
    94 0.35967085086866E-04
    95 0.39958038095670E-04
    96 -.49161697810079E-05
    97 -.55642928106216E-05
    98 -.18296208657163E-05
    99 -.27072253609973E-06
   100 -.14117013421471E-05
   101 0.24422462243086E-05
   102 0.68664564276581E-05
   103 0.88769835249050E-05
   104 0.12447752967685E-07
   105 -.59374492703193E-05
   106 0.48573116617921E+00
   107 0.60586480114148E-03
   108 0.20274132190082E-01
   109 0.79505204110149E-03
   110 0.40983281381435E-03
   111 0.16338819973548E-02
   112 0.40702306654562E-03
   113 -.61301423980506E-04
   114 -.35187221596929E-03
   115 -.10944682645404E-03
   116 0.78513743432236E-04
   117 0.28928112204009E-03
   118 0.67529218571724E-04
   119 -.60416373413555E-04
   120 0.12100587822147E-03
   121 -.60589504807911E-04
   122 0.59596527146139E-04
   123 0.14247000606544E-04
   124 0.52727774829561E-04
   125 0.16233988265974E-04
   126 -.30754919578158E-04
   127 0.14520931312183E-04
   128 -.39837552398893E-05
   129 -.25933683882148E-05
   130 -.22396334669066E-04
   131 0.19438295961231E-05
   132 -.71341302008819E-05
   133 0.38892923930753E-05
   134 -.38047654529174E-05
   135 0.51698474098878E-05
   136 0.19425401926317E-05
   137 0.11968443847530E-05
   138 0.44015926438158E-05
   139 -.71605734978053E-05
   140 -.21093491041569E-05
 Sym=     2a   
 Ene= -.15749967274872E+02
 Spin= Alpha
 Occup= 2.000000
     1 0.29769173406125E+00
     2 -.58009409966619E-03
     3 0.12841288453665E-01
     4 -.68877084607595E-03
     5 -.80950305936457E-03
     6 0.41653867690955E-05
     7 -.81080043798234E-03
     8 0.52772453510396E-03
     9 -.65704941154240E-03
    10 0.15477427194740E-02
    11 0.18275762235658E-03
    12 -.18569882594978E-03
    13 0.46986061601589E-03
    14 0.69884425911589E-04
    15 0.64002139545690E-05
    16 -.76284639866158E-04
    17 0.33000127303643E-04
    18 0.43488924672759E-04
    19 0.75743476409963E-04
    20 0.13523834877091E-03
    21 0.22631926319715E-03
    22 -.36155761196805E-03
    23 0.11636503824609E-03
    24 -.21813049580969E-03
    25 0.25458988397514E-03
    26 -.18389334769207E-04
    27 0.28686704098729E-04
    28 0.39079457814734E-04
    29 -.11591002747025E-04
    30 -.32734971538080E-06
    31 -.23922308305001E-04
    32 0.36262884309994E-04
    33 -.38159902533727E-04
    34 -.28508286213548E-04
    35 -.28993995935795E-04
    36 0.14526735921484E+00
    37 -.25813905624311E-03
    38 0.62557414507316E-02
    39 -.30261300686717E-03
    40 0.45278544556509E-03
    41 -.25573572576698E-03
    42 -.19892453960662E-03
    43 -.68482001639648E-03
    44 -.40534982420049E-03
    45 0.92850763252112E-03
    46 -.20471419783549E-03
    47 -.10975691169608E-03
    48 0.27249649002883E-03
    49 -.35076356319320E-06
    50 0.64198417886678E-04
    51 -.63847654323485E-04
    52 -.59705335471735E-04
    53 0.76163942162172E-04
    54 0.31547525710695E-04
    55 -.10102907479222E-03
    56 0.25585753471009E-03
    57 -.15482845991786E-03
    58 -.76575301459761E-04
    59 0.36331737643373E-03
    60 0.43567957196062E-04
    61 0.49079226111039E-05
    62 -.42022319815193E-05
    63 -.92666302117404E-05
    64 0.38671384160664E-04
    65 -.41840010279593E-05
    66 0.50724955282703E-04
    67 -.45256053312706E-04
    68 0.98218868486998E-05
    69 -.38292466237220E-04
    70 0.16584013733662E-06
    71 -.81734079917912E+00
    72 0.16831047658937E-02
    73 -.35336856403670E-01
    74 0.20179327512164E-02
    75 0.10781273785419E-02
    76 0.14999569902095E-02
    77 -.25843585974254E-02
    78 -.13233577162519E-02
    79 -.21355685799905E-02
    80 0.33171318994426E-02
    81 -.43327947692297E-03
    82 -.68539493237053E-03
    83 0.10724930978311E-02
    84 0.21818435787164E-04
    85 0.34114804206048E-04
    86 -.55933239993212E-04
    87 -.17702230403165E-04
    88 0.57797343139479E-04
    89 0.54198026843570E-04
    90 -.30966170522835E-03
    91 -.79712577482532E-04
    92 0.38937428271088E-03
    93 0.26687374920562E-03
    94 -.36644458433103E-03
    95 -.60237060413114E-03
    96 0.23916484415541E-04
    97 0.13236639681699E-04
    98 0.16038314450136E-05
    99 -.19310426256620E-04
   100 0.19173531523835E-04
   101 -.77025578016302E-05
   102 -.12776904704958E-04
   103 -.36932347197005E-04
   104 0.55507921203289E-05
   105 0.25016180457009E-04
   106 0.41945546206371E+00
   107 -.79889180358696E-03
   108 0.18102750728312E-01
   109 -.94770379564552E-03
   110 0.38507559500746E-03
   111 0.15305224517743E-02
   112 0.37261813147766E-03
   113 -.62781980460467E-03
   114 -.21152994287020E-02
   115 0.38874259277209E-03
   116 -.19379421408017E-03
   117 -.66007471163242E-03
   118 0.10125269904362E-03
   119 -.45195456248998E-05
   120 0.10894271478126E-04
   121 -.63747258532264E-05
   122 -.13016899434288E-04
   123 0.46742377973694E-04
   124 0.11153054006041E-03
   125 0.22866038883924E-03
   126 -.46414615542397E-03
   127 0.23548576658474E-03
   128 -.27549899420255E-03
   129 0.10041475572007E-03
   130 0.15778073033982E-03
   131 0.25255440459133E-04
   132 -.35800562494255E-04
   133 -.22587554300508E-04
   134 -.43399034838754E-04
   135 0.20009369510073E-04
   136 -.39032653951817E-05
   137 0.95153058377622E-05
   138 0.28022125311857E-04
   139 0.34207649512023E-04
   140 0.27282954495454E-04
 Sym=     3a   
 Ene= -.15749949628324E+02
 Spin= Alpha
 Occup= 2.000000
     1 -.78092850232383E+00
     2 0.15665356451712E-02
     3 -.33743087815646E-01
     4 0.18731833316717E-02
     5 0.21495325987229E-02
     6 0.29708746226560E-05
     7 0.21333550845799E-02
     8 -.28838865122825E-02
     9 -.35425237436921E-03
    10 -.26662799935928E-02
    11 -.92397999783302E-03
    12 -.10110547262475E-03
    13 -.85776853793134E-03
    14 -.14294851399630E-04
    15 0.59071694633971E-04
    16 -.44776843234342E-04
    17 0.25021942830316E-04
    18 -.72451956446993E-04
    19 0.33155445953241E-04
    20 0.23826282595642E-03
    21 -.36336065755193E-03
    22 0.12509783159551E-03
    23 0.89642228066566E-04
    24 0.72597292066001E-03
    25 0.11130670824324E-03
    26 0.86478751489001E-05
    27 0.11411968612377E-05
    28 0.21690699876910E-04
    29 0.15541241054663E-04
    30 0.25877866443600E-05
    31 -.40878593295625E-04
    32 -.27143583070986E-04
    33 -.41188628988221E-05
    34 0.11777465653035E-04
    35 -.26984875622585E-04
    36 0.22698652751528E+00
    37 -.41495472127488E-03
    38 0.97965215187364E-02
    39 -.49182025932308E-03
    40 0.72087006222905E-03
    41 -.40927576007137E-03
    42 -.29360284681419E-03
    43 -.14445615906059E-02
    44 0.36178859625374E-04
    45 -.27729490081291E-03
    46 -.43882329376444E-03
    47 0.24412305316972E-04
    48 -.73721469365268E-04
    49 -.74223629874780E-04
    50 0.68403971114860E-04
    51 0.58196587599190E-05
    52 -.18251915446779E-04
    53 -.70986632339029E-04
    54 0.55833281007082E-04
    55 -.42476260363731E-03
    56 0.28871034412457E-03
    57 0.13605225951273E-03
    58 0.15185241949249E-03
    59 -.89271821804743E-04
    60 0.10560787280987E-03
    61 -.49523029797837E-04
    62 -.29012433752088E-04
    63 0.21658271678801E-04
    64 0.39968496361939E-04
    65 0.45028258857708E-04
    66 -.14411482138500E-04
    67 0.26473620285887E-04
    68 -.61039944202816E-05
    69 -.14646138510874E-04
    70 0.21746188044976E-04
    71 0.32872439027713E-01
    72 -.70065248590293E-04
    73 0.14124202648217E-02
    74 -.84281509568905E-04
    75 -.36872795240473E-04
    76 -.55075777741693E-04
    77 0.10378121749694E-03
    78 -.74772554782745E-03
    79 -.29242256781008E-03
    80 -.68275507056257E-03
    81 -.20844285352121E-03
    82 -.82409057193314E-04
    83 -.19769761912173E-03
    84 0.24931990881366E-04
    85 0.64017117890938E-04
    86 -.88949108772303E-04
    87 0.47341191940868E-04
    88 -.77407924330025E-04
    89 0.78694069578816E-05
    90 0.10434628289629E-03
    91 0.22074133956225E-03
    92 -.32508762245854E-03
    93 0.15323045336107E-03
    94 -.23774667773850E-03
    95 0.51373701337780E-04
    96 0.27958903267523E-04
    97 -.24978608249073E-04
    98 -.48004259554772E-04
    99 -.11652353088532E-04
   100 -.40139806162052E-05
   101 0.32928771993449E-04
   102 -.25858451880982E-04
   103 0.37526300233163E-04
   104 0.31475700550959E-04
   105 0.26709705066780E-04
   106 0.53971630821043E+00
   107 -.10603071693317E-02
   108 0.23308652117335E-01
   109 -.12658456002492E-02
   110 0.50069757476806E-03
   111 0.19680917805682E-02
   112 0.49456805427631E-03
   113 -.12642356085490E-02
   114 -.22674847449653E-02
   115 -.10458968037797E-02
   116 -.38176273008532E-03
   117 -.73048183156859E-03
   118 -.32003096840071E-03
   119 -.50992002117406E-04
   120 0.10009111292270E-03
   121 -.49099110805298E-04
   122 -.30410370521388E-04
   123 -.53765457443532E-04
   124 -.46171845271134E-05
   125 0.14373844544711E-03
   126 -.29984637064842E-03
   127 0.15610792520130E-03
   128 -.40805896658875E-03
   129 -.25486661043776E-03
   130 -.31639117912869E-03
   131 0.34917263572984E-04
   132 0.94773616778581E-05
   133 0.26003584701334E-04
   134 -.37206363097703E-04
   135 -.80642419807334E-05
   136 -.13444805754514E-04
   137 -.96400618647789E-05
   138 -.46509729946920E-05
   139 -.21442664076000E-04
   140 -.43146099866940E-04
 Sym=     4a   
 Ene= -.15749920852444E+02
 Spin= Alpha
 Occup= 2.000000
     1 -.11596707836867E+00
     2 0.24298386855043E-03
     3 -.50277994526103E-02
     4 0.29406665999529E-03
     5 0.33057326369640E-03
     6 -.87515132104621E-05
     7 0.31566346987638E-03
     8 -.93264807364534E-03
     9 0.70935648094579E-03
    10 0.81681820015559E-04
    11 -.28924083619846E-03
    12 0.20581552182725E-03
    13 0.60080468839420E-05
    14 0.80484143160245E-04
    15 -.19412740775796E-04
    16 -.61071402384450E-04
    17 -.79239686222364E-04
    18 -.28083395693792E-04
    19 -.35274564620781E-04
    20 0.32758875582466E-03
    21 -.15120269528072E-03
    22 -.17638606054395E-03
    23 -.27571078330343E-03
    24 0.57021304121948E-04
    25 -.13019218337192E-03
    26 -.45134250986280E-04
    27 -.30014877872272E-04
    28 0.14048342793676E-04
    29 0.26494723331046E-04
    30 0.41248761515101E-04
    31 -.27416264861509E-04
    32 0.34059228660270E-04
    33 -.97957715984879E-06
    34 0.85684351867826E-05
    35 0.33474379184595E-04
    36 0.81553229877233E+00
    37 -.15769398908545E-02
    38 0.35203343351423E-01
    39 -.18793092726713E-02
    40 0.25573396580789E-02
    41 -.14869963360789E-02
    42 -.10839013229429E-02
    43 -.30935338122551E-02
    44 0.21507687506016E-02
    45 0.14530245574562E-02
    46 -.98823410138894E-03
    47 0.67273459198669E-03
    48 0.45758221009524E-03
    49 0.73069363018678E-04
    50 -.47887121542642E-04
    51 -.25182241476036E-04
    52 -.57411015758483E-04
    53 -.45659042056237E-04
    54 0.98814844030407E-05
    55 -.31924360251233E-03
    56 0.29763699234678E-04
    57 0.28947990327765E-03
    58 0.57806005400086E-03
    59 0.41030435273687E-03
    60 -.29365195312459E-03
    61 0.70743443597513E-05
    62 -.80695742435896E-05
    63 -.29895483858006E-04
    64 -.12109070997526E-04
    65 0.29294901163398E-04
    66 0.18597108466882E-04
    67 0.26178420667379E-05
    68 -.18468431228509E-04
    69 0.21511892009167E-04
    70 -.30542440580398E-04
    71 -.15456691009010E+00
    72 0.34306006948088E-03
    73 -.66965758066254E-02
    74 0.41665658913459E-03
    75 0.21010076981360E-03
    76 0.27726451984076E-03
    77 -.49449240699354E-03
    78 -.83294067473326E-03
    79 0.42437075824487E-03
    80 0.90583799537817E-03
    81 -.25055053398243E-03
    82 0.10410946806910E-03
    83 0.29231592636364E-03
    84 0.60720735672102E-04
    85 -.77887549821098E-04
    86 0.17166814148995E-04
    87 -.40267565656677E-04
    88 -.64957921549611E-04
    89 0.57349684820396E-04
    90 0.13258709900575E-03
    91 -.30931660458297E-03
    92 0.17672950557722E-03
    93 -.69690264575434E-04
    94 -.33123285073247E-03
    95 0.50692496841698E-04
    96 0.31331719643396E-05
    97 0.99725858611359E-05
    98 0.43728558480739E-05
    99 0.41144894231489E-04
   100 -.85411585813038E-05
   101 0.39899460992577E-04
   102 -.45348485529965E-04
   103 -.48384693568682E-05
   104 -.45766262751838E-04
   105 -.56374428945096E-05
   106 -.50132627779774E+00
   107 0.10352568765487E-02
   108 -.21674365324015E-01
   109 0.12451149403651E-02
   110 -.45324598494079E-03
   111 -.18366282656366E-02
   112 -.45939270880940E-03
   113 -.16275317091062E-03
   114 0.25406273859075E-02
   115 0.85628915325795E-03
   116 -.20520710684876E-04
   117 0.81979452863445E-03
   118 0.26803630076689E-03
   119 0.13996995616823E-04
   120 -.25356512993870E-04
   121 0.11359517377047E-04
   122 -.10619461221631E-03
   123 -.34922988471201E-04
   124 0.20094613152953E-04
   125 -.25943062723346E-03
   126 0.51980355549182E-03
   127 -.26037292825835E-03
   128 -.86063869188827E-04
   129 -.47381385315236E-04
   130 0.34660721273796E-03
   131 0.16972487790271E-04
   132 0.33085206704691E-04
   133 -.31322666860560E-04
   134 -.29108713371374E-04
   135 -.25684360752345E-04
   136 -.68262942181382E-05
   137 0.63377315035760E-05
   138 -.18704101992447E-04
   139 0.48850061620213E-04
   140 -.18304247133378E-04
 Sym=     5a   
 Ene= -.16534725373898E+01
 Spin= Alpha
 Occup= 2.000000
     1 -.85281369178831E-02
     2 0.22723002467810E+00
     3 0.53806093675060E-01
     4 0.61128551222827E-01
     5 -.45139289458795E-01
     6 0.75686258517209E-05
     7 -.45478979405588E-01
     8 -.62764175874899E-01
     9 0.66319956850333E-05
    10 -.63001782323844E-01
    11 -.10876970905040E-01
    12 0.68281735465935E-06
    13 -.10854973959576E-01
    14 0.11117629880600E-02
    15 -.22951089112854E-02
    16 0.11833459232254E-02
    17 0.24502830860662E-04
    18 0.39757315756404E-02
    19 -.26451067017337E-04
    20 0.23915701775914E-02
    21 -.47707119563374E-02
    22 0.23791417787460E-02
    23 0.35465894348665E-04
    24 0.82637936368208E-02
    25 -.36875773056419E-04
    26 0.13445964451778E-03
    27 -.29874017440890E-03
    28 0.12425427552310E-03
    29 0.34532832145785E-03
    30 0.18379540183150E-03
    31 -.51507524014717E-03
    32 -.52572486468118E-03
    33 0.21700660072157E-03
    34 0.34837063620838E-03
    35 -.23099385291033E-03
    36 -.84574106849846E-02
    37 0.22572599257641E+00
    38 0.53483011934316E-01
    39 0.60703151397550E-01
    40 0.51654294040906E-01
    41 -.29942038799466E-01
    42 -.22096806047522E-01
    43 0.71709219986869E-01
    44 -.41557582363104E-01
    45 -.30586037417862E-01
    46 0.12377584503865E-01
    47 -.71646301150079E-02
    48 -.52526243240852E-02
    49 0.22278855275912E-02
    50 -.75291012025444E-03
    51 -.14749754073367E-02
    52 -.30115670284656E-02
    53 -.22466065707521E-02
    54 0.12889808293258E-02
    55 0.46397634445259E-02
    56 -.15722041576550E-02
    57 -.30675592868708E-02
    58 -.62467925414790E-02
    59 -.46129503859243E-02
    60 0.26492601604858E-02
    61 0.66572903859832E-04
    62 0.20516684718656E-03
    63 0.40764351737795E-03
    64 -.12994541456686E-03
    65 -.62547717257828E-03
    66 -.32040486480320E-03
    67 0.40628491472771E-04
    68 0.35021696235521E-03
    69 -.22650630446333E-03
    70 0.35631801801437E-03
    71 -.85965151489152E-02
    72 0.22873623244255E+00
    73 0.54126972206409E-01
    74 0.61571270137184E-01
    75 -.21672373834408E-01
    76 -.30466629631059E-01
    77 0.52533560814474E-01
    78 -.30168644672038E-01
    79 -.42288397322436E-01
    80 0.72901018017842E-01
    81 -.52477073756820E-02
    82 -.73271736832310E-02
    83 0.12617109086702E-01
    84 -.15073722721436E-02
    85 -.77719910956944E-03
    86 0.22845713817130E-02
    87 0.12708162931363E-02
    88 -.21680752371445E-02
    89 -.30825458778413E-02
    90 -.31339600743881E-02
    91 -.16082846498399E-02
    92 0.47422447242280E-02
    93 0.26737402759615E-02
    94 -.45683604675828E-02
    95 -.64240797613424E-02
    96 0.39522662358242E-03
    97 0.22479666432531E-03
    98 0.70193216454528E-04
    99 -.23300639577310E-03
   100 0.35426054869228E-03
   101 0.36594274007336E-04
   102 -.29724576233570E-03
   103 -.65585692222023E-03
   104 -.13076835613835E-03
   105 0.35076725335414E-03
   106 -.85259189141661E-02
   107 0.22721185452959E+00
   108 0.53801041476384E-01
   109 0.61132857732651E-01
   110 0.15305874202351E-01
   111 0.60401864357687E-01
   112 0.14890883160002E-01
   113 0.21211069340960E-01
   114 0.83837319140578E-01
   115 0.20703288364164E-01
   116 0.36633871359285E-02
   117 0.14490322773415E-01
   118 0.35816426881970E-02
   119 -.18872034390549E-02
   120 0.38243900325982E-02
   121 -.19371865935433E-02
   122 0.17905081521018E-02
   123 0.44119732961499E-03
   124 0.17417813980007E-02
   125 -.39370881314642E-02
   126 0.79517828162458E-02
   127 -.40146946847816E-02
   128 0.37173446903797E-02
   129 0.91772349505509E-03
   130 0.36274361009630E-02
   131 -.44271048535983E-03
   132 0.48686080650060E-03
   133 -.44656795997949E-03
   134 0.43249262391381E-03
   135 -.31550196503355E-03
   136 0.17594796498090E-03
   137 0.16146581985609E-03
   138 -.33769035031588E-03
   139 0.42318582407164E-03
   140 0.25081535172246E-05
 Sym=     6a   
 Ene= -.10447062546774E+01
 Spin= Alpha
 Occup= 2.000000
     1 0.14989320443445E-02
     2 0.30641951316387E+00
     3 0.77826540913759E-01
     4 0.21478902966852E+00
     5 0.52704094244263E-01
     6 0.14250129392521E-01
     7 -.45954034741498E-01
     8 0.58695214550354E-01
     9 0.19293028736962E-01
    10 -.75307937386541E-01
    11 0.63453519671925E-02
    12 0.48891330658382E-02
    13 -.28232164703545E-01
    14 -.46091694946932E-02
    15 0.40737093223784E-05
    16 0.46050957853708E-02
    17 -.10815721385715E-03
    18 -.35341914734941E-03
    19 -.14341170789934E-02
    20 -.84589127712328E-02
    21 -.20518002510069E-02
    22 0.10510713022240E-01
    23 0.82783525060340E-04
    24 0.26759079908445E-02
    25 -.32368306150322E-02
    26 0.62208957698670E-03
    27 -.28620949969334E-03
    28 -.66593444364129E-03
    29 -.13566724542101E-03
    30 -.37336941398661E-04
    31 0.64688946770094E-03
    32 -.69895350392081E-03
    33 0.42132727967096E-03
    34 0.24655534302331E-03
    35 0.30257751484967E-04
    36 -.16053721962961E-02
    37 -.32798593261231E+00
    38 -.83311558182906E-01
    39 -.23006685449548E+00
    40 0.42301446370321E-01
    41 0.45252946286698E-01
    42 0.22024451999632E-01
    43 0.41595211238495E-01
    44 0.70805503527110E-01
    45 0.36738171571499E-01
    46 -.15106367164812E-03
    47 0.24552175500655E-01
    48 0.14175433954761E-01
    49 0.41172069927792E-02
    50 -.35701810518387E-02
    51 -.54702594094043E-03
    52 0.93864932785111E-03
    53 0.55233364784939E-03
    54 -.21451081257025E-02
    55 0.63558408941459E-02
    56 -.69352017285371E-02
    57 0.57936083439128E-03
    58 0.46013933625532E-02
    59 0.33336974486305E-02
    60 -.57365222150091E-02
    61 0.70410590377630E-03
    62 0.24562911274219E-03
    63 -.31067240817166E-03
    64 -.62310059687313E-03
    65 -.18174656341028E-03
    66 -.10233477317560E-03
    67 -.32155660164851E-03
    68 -.14779947259642E-03
    69 0.51914554721884E-03
    70 -.41369575247079E-03
    71 0.89615816293077E-03
    72 0.18069959759080E+00
    73 0.45874050032755E-01
    74 0.12671313802707E+00
    75 0.85535259382666E-01
    76 -.37400228071800E-02
    77 0.29870611389220E-01
    78 0.11255774399720E+00
    79 -.10188996352009E-01
    80 0.49324229150210E-01
    81 0.26451170719883E-01
    82 -.61051938989274E-02
    83 0.18647328060201E-01
    84 -.32315373184624E-02
    85 -.30272441995517E-03
    86 0.35342617384176E-02
    87 -.22302531492534E-02
    88 0.51584316785819E-02
    89 -.14772598954538E-02
    90 -.72266413316690E-02
    91 -.13030372510053E-02
    92 0.85296785826743E-02
    93 -.36055975661982E-02
    94 0.98520374459249E-02
    95 -.46734149422250E-02
    96 -.36463697391988E-03
    97 0.16386678363935E-03
    98 0.72236065855404E-03
    99 -.17217157339911E-03
   100 0.43540119317462E-03
   101 -.88828546147705E-03
   102 0.66138340987591E-03
   103 -.65525155365773E-03
   104 -.80863060601953E-04
   105 -.48219539039784E-03
   106 -.81754599157638E-03
   107 -.16175582272906E+00
   108 -.41048450820965E-01
   109 -.11368551774624E+00
   110 0.89331573145936E-01
   111 -.17309388552479E-01
   112 -.86673987346503E-02
   113 0.11918080561408E+00
   114 -.32771229465461E-01
   115 -.14085201760333E-01
   116 0.29099885895009E-01
   117 -.14740505387054E-01
   118 -.51892518634108E-02
   119 0.19203447053334E-02
   120 -.22452058295694E-02
   121 0.32486112423592E-03
   122 0.61190170341643E-02
   123 0.21690284653497E-02
   124 -.13341116509927E-02
   125 0.44925164316545E-02
   126 -.64104978884565E-02
   127 0.19179814568019E-02
   128 0.11885586184463E-01
   129 0.46653370794168E-02
   130 -.37826296343372E-02
   131 -.59209508267989E-03
   132 -.56831116421218E-03
   133 0.23003683551334E-03
   134 0.10124083994517E-02
   135 0.63533511036205E-03
   136 0.17952829555200E-03
   137 -.21802948704235E-03
   138 0.12713432696824E-03
   139 -.48815509647406E-03
   140 0.57543918912081E-03
 Sym=     7a   
 Ene= -.10413305422513E+01
 Spin= Alpha
 Occup= 2.000000
     1 -.45440001822997E-03
     2 -.86780305524005E-01
     3 -.22041633689870E-01
     4 -.61273174358699E-01
     5 -.10439467614299E-02
     6 0.96727504935546E-01
     7 -.14292822069725E-02
     8 0.22363057438495E-02
     9 0.13159413053496E+00
    10 0.18363161700815E-02
    11 0.30049570726834E-02
    12 0.34141398881993E-01
    13 0.30861661752013E-02
    14 0.55265199414985E-03
    15 -.11501073261898E-02
    16 0.59745533203999E-03
    17 -.51970543940495E-02