[Molden Format]
[Title]
 Molden file created by orca_2mkl for BaseName=./methane

[Atoms] AU
C    1   6          0.0000000000         0.0000000000         0.0000000000 
H    2   1          1.1888607259         1.1888607259         1.1888607259 
H    3   1         -1.1888607259        -1.1888607259         1.1888607259 
H    4   1          1.1888607259        -1.1888607259        -1.1888607259 
H    5   1         -1.1888607259         1.1888607259        -1.1888607259 
[GTO]
  1 0
g   3 1.0 
       60.0434382795      3830.8001591095
       22.1675054852       231.2768370473
        4.8023959699       491.6481952994
g   1 1.0 
        1.4833907695        19.4725250514
g   1 1.0 
        0.4617895271         0.7864854014
g   1 1.0 
        0.3024922807         0.2457161843
g   1 1.0 
        0.0902841222         0.0088389513

  2 0
g   3 1.0 
       10.1787046997         2.6167059776
        2.3952640718        -8.0195942307
        1.0486496863         7.9991712684
g   1 1.0 
        0.7201895699         2.6696124741
g   1 1.0 
        0.3328151500         0.3195419919
g   1 1.0 
        0.1216647326         0.0200757782

  3 0
g   3 1.0 
       10.1787046997         2.6167059776
        2.3952640718        -8.0195942307
        1.0486496863         7.9991712684
g   1 1.0 
        0.7201895699         2.6696124741
g   1 1.0 
        0.3328151500         0.3195419919
g   1 1.0 
        0.1216647326         0.0200757782

  4 0
g   3 1.0 
       10.1787046997         2.6167059776
        2.3952640718        -8.0195942307
        1.0486496863         7.9991712684
g   1 1.0 
        0.7201895699         2.6696124741
g   1 1.0 
        0.3328151500         0.3195419919
g   1 1.0 
        0.1216647326         0.0200757782

  5 0
g   3 1.0 
       10.1787046997         2.6167059776
        2.3952640718        -8.0195942307
        1.0486496863         7.9991712684
g   1 1.0 
        0.7201895699         2.6696124741
g   1 1.0 
        0.3328151500         0.3195419919
g   1 1.0 
        0.1216647326         0.0200757782

[5D]
[9G]
[MO]
 Sym=     1a
 Ene= -1.79770478286030E+00
 Spin= Alpha
 Occup= 2.000000
  1       0.001610319871
  2       0.000000000000
  3      -0.000000000000
  4       0.000020102490
  5       0.000000000000
  6      -0.000000000000
  7      -0.000000000000
  8      -0.001345772595
  9      -0.000000000000
 10      -0.019730375764
 11      -0.000000000000
 12       0.000000000000
 13      -0.000026225205
 14      -0.000000000000
 15      -0.000000000000
 16      -0.000000000000
 17       0.016655386435
 18       0.000000000000
 19       0.513139293704
 20      -0.000000000000
 21      -0.000000000000
 22       0.000344115413
 23      -0.000000000000
 24       0.000000000003
 25      -0.000000000001
 26      -0.433421727635
 27       0.000000000000
 28      -0.689131342702
 29       0.000000000001
 30      -0.000000000000
 31      -0.000140189845
 32       0.000000000002
 33      -0.000000000005
 34       0.000000000001
 35       0.582316306137
 36      -0.000000000000
 37       0.660649289060
 38      -0.000000000000
 39      -0.000000000001
 40      -0.001429981582
 41      -0.000000000002
 42       0.000000000004
 43      -0.000000000000
 44      -0.559431527907
 45      -0.000000000004
 46       0.040641710209
 47       0.066203782951
 48       0.066251808537
 49      -0.000110617011
 50      -0.186757532922
 51      -0.174629522534
 52       0.175285810525
 53      -0.034432133522
 54       0.000187109008
 55      -0.089993231044
 56      -0.117742912510
 57      -0.117842839055
 58       0.000011251848
 59       0.332494823051
 60       0.310949279214
 61      -0.311782847845
 62       0.076066668509
 63      -0.000201238298
 64      -0.022793991714
 65      -0.018855574125
 66      -0.018741506816
 67       0.000018897642
 68       0.053353787319
 69       0.049910860450
 70      -0.049585365725
 71       0.019278724448
 72       0.000008379212
 73      -0.381093448232
 74      -0.011177301242
 75      -0.011335448574
 76      -0.000124373974
 77       0.032532580878
 78       0.030554169833
 79      -0.029990782026
 80       0.321988733833
 81       0.000347122237
 82       0.040641710210
 83      -0.066203782951
 84      -0.066251808537
 85      -0.000110617012
 86      -0.186757532925
 87       0.174629522536
 88      -0.175285810526
 89      -0.034432133522
 90       0.000187109007
 91      -0.089993231047
 92       0.117742912509
 93       0.117842839055
 94       0.000011251849
 95       0.332494823056
 96      -0.310949279218
 97       0.311782847846
 98       0.076066668509
 99      -0.000201238297
100      -0.022793991713
101       0.018855574126
102       0.018741506817
103       0.000018897640
104       0.053353787319
105      -0.049910860449
106       0.049585365726
107       0.019278724450
108       0.000008379211
109      -0.381093448233
110       0.011177301242
111       0.011335448574
112      -0.000124373974
113       0.032532580878
114      -0.030554169837
115       0.029990782026
116       0.321988733833
117       0.000347122239
118       0.040641710204
119      -0.066203782953
120       0.066251808531
121      -0.000110617011
122       0.186757532922
123       0.174629522539
124       0.175285810530
125      -0.034432133526
126      -0.000187109007
127      -0.089993231037
128       0.117742912513
129      -0.117842839048
130       0.000011251848
131      -0.332494823050
132      -0.310949279221
133      -0.311782847852
134       0.076066668514
135       0.000201238297
136      -0.022793991717
137       0.018855574122
138      -0.018741506819
139       0.000018897640
140      -0.053353787321
141      -0.049910860445
142      -0.049585365722
143       0.019278724447
144      -0.000008379212
145      -0.381093448230
146       0.011177301246
147      -0.011335448571
148      -0.000124373971
149      -0.032532580875
150      -0.030554169840
151      -0.029990782025
152       0.321988733833
153      -0.000347122235
154       0.040641710211
155       0.066203782954
156      -0.066251808535
157      -0.000110617012
158       0.186757532925
159      -0.174629522537
160      -0.175285810528
161      -0.034432133526
162      -0.000187109010
163      -0.089993231047
164      -0.117742912514
165       0.117842839052
166       0.000011251850
167      -0.332494823053
168       0.310949279216
169       0.311782847848
170       0.076066668513
171       0.000201238302
172      -0.022793991712
173      -0.018855574121
174       0.018741506817
175       0.000018897641
176      -0.053353787317
177       0.049910860448
178       0.049585365722
179       0.019278724448
180      -0.000008379215
181      -0.381093448232
182      -0.011177301246
183       0.011335448571
184      -0.000124373971
185      -0.032532580876
186       0.030554169835
187       0.029990782024
188       0.321988733833
189      -0.000347122234
 Sym=     1a
 Ene= -4.68271539531469E-01
 Spin= Alpha
 Occup= 2.000000
  1      -0.000000000000
  2      -0.000000000001
  3      -0.001070663423
  4      -0.000000000000
  5      -0.000000000004
  6       0.000000000003
  7      -0.002832709024
  8      -0.000000000000
  9       0.000000000000
 10       0.000000000000
 11       0.000000000008
 12       0.007759715140
 13       0.000000000001
 14       0.000000000027
 15      -0.000000000024
 16       0.020530275295
 17       0.000000000000
 18      -0.000000000000
 19       0.000000000000
 20      -0.000000000165
 21      -0.139998979277
 22      -0.000000000001
 23      -0.000000000474
 24       0.000000000430
 25      -0.370402473842
 26      -0.000000000000
 27       0.000000000005
 28      -0.000000000000
 29       0.000000000318
 30       0.273512197913
 31       0.000000000001
 32       0.000000000913
 33      -0.000000000830
 34       0.723645255010
 35       0.000000000000
 36      -0.000000000006
 37       0.000000000001
 38      -0.000000000473
 39      -0.409070971573
 40      -0.000000000001
 41      -0.000000001387
 42       0.000000001268
 43      -1.082300072900
 44       0.000000000002
 45      -0.000000000000
 46       0.017981628541
 47      -0.006616536696
 48      -0.020109824412
 49       0.013102743733
 50       0.020848875259
 51       0.019787568165
 52      -0.053205594315
 53      -0.005292506688
 54       0.000806757739
 55      -0.061154869779
 56       0.005455674371
 57       0.030244487520
 58      -0.029481970761
 59       0.007320781500
 60       0.009888297590
 61       0.080019392377
 62       0.029399022780
 63       0.008599358253
 64       0.076700266865
 65       0.109267376969
 66       0.023092776292
 67      -0.097674716371
 68       0.002856135861
 69       0.044352522675
 70       0.061097748958
 71      -0.138658699666
 72       0.117891253453
 73       0.023928570678
 74       0.045592416094
 75       0.254869577188
 76      -0.059827666080
 77      -0.020871168932
 78      -0.005079902236
 79       0.674321519612
 80      -0.065448805927
 81       0.040851777009
 82      -0.017981628552
 83      -0.006616536714
 84      -0.020109824430
 85      -0.013102743732
 86      -0.020848875390
 87       0.019787568215
 88      -0.053205594363
 89       0.005292506732
 90      -0.000806757743
 91       0.061154869852
 92       0.005455674346
 93       0.030244487493
 94       0.029481970759
 95      -0.007320781304
 96       0.009888297591
 97       0.080019392376
 98      -0.029399022924
 99      -0.008599358248
100      -0.076700267316
101       0.109267376706
102       0.023092776027
103       0.097674716376
104      -0.002856135707
105       0.044352522600
106       0.061097749037
107       0.138658699677
108      -0.117891253454
109      -0.023928570901
110       0.045592416014
111       0.254869577117
112       0.059827666075
113       0.020871170661
114      -0.005079902316
115       0.674321519693
116       0.065448805885
117      -0.040851777012
118       0.017981628505
119       0.006616536665
120      -0.020109824415
121       0.013102743751
122      -0.020848875339
123      -0.019787568090
124      -0.053205594309
125      -0.005292506723
126      -0.000806757740
127      -0.061154869705
128      -0.005455674273
129       0.030244487479
130      -0.029481970807
131      -0.007320781293
132      -0.009888297778
133       0.080019392383
134       0.029399022859
135      -0.008599358274
136       0.076700267138
137      -0.109267376655
138       0.023092775782
139      -0.097674716617
140      -0.002856135686
141      -0.044352522735
142       0.061097749156
143      -0.138658699352
144      -0.117891253719
145       0.023928570844
146      -0.045592415421
147       0.254869577015
148      -0.059827666223
149       0.020871170618
150       0.005079900736
151       0.674321519676
152      -0.065448805735
153      -0.040851777113
154      -0.017981628494
155       0.006616536646
156      -0.020109824396
157      -0.013102743753
158       0.020848875208
159      -0.019787568042
160      -0.053205594260
161       0.005292506681
162       0.000806757742
163       0.061154869632
164      -0.005455674298
165       0.030244487503
166       0.029481970811
167       0.007320781489
168      -0.009888297775
169       0.080019392385
170      -0.029399022716
171       0.008599358272
172      -0.076700266686
173      -0.109267376918
174       0.023092776048
175       0.097674716613
176       0.002856135840
177      -0.044352522811
178       0.061097749077
179       0.138658699344
180       0.117891253720
181      -0.023928570623
182      -0.045592415500
183       0.254869577084
184       0.059827666229
185      -0.020871168888
186       0.005079900656
187       0.674321519595
188       0.065448805772
189       0.040851777109
 Sym=     1a
 Ene= -4.64136658700947E-01
 Spin= Alpha
 Occup= 2.000000
  1       0.000000000000
  2      -0.001079656522
  3       0.000000000001
  4       0.000000000000
  5      -0.000000011214
  6       0.002809588222
  7       0.000000000003
  8      -0.000000000000
  9       0.000000000061
 10      -0.000000000000
 11       0.007851621884
 12      -0.000000000009
 13      -0.000000000000
 14       0.000000081597
 15      -0.020447294053
 16      -0.000000000023
 17       0.000000000000
 18      -0.000000000422
 19       0.000000000001
 20      -0.140949002644
 21       0.000000000162
 22       0.000000000002
 23      -0.000001471901
 24       0.369052245647
 25       0.000000000428
 26      -0.000000000003
 27       0.000000005070
 28       0.000000000000
 29       0.272565011570
 30      -0.000000000318
 31      -0.000000000005
 32       0.000002846183
 33      -0.713590903427
 34      -0.000000000841
 35       0.000000000004
 36      -0.000000009945
 37      -0.000000000001
 38      -0.408505418325
 39       0.000000000479
 40       0.000000000004
 41      -0.000004328990
 42       1.087634490177
 43       0.000000001263
 44      -0.000000000000
 45      -0.000000009003
 46       0.016934836523
 47      -0.019623507295
 48      -0.007659039643
 49      -0.011506801767
 50       0.021550098889
 51       0.052764284275
 52      -0.020541400989
 53      -0.005567156303
 54      -0.000647331548
 55      -0.059053148020
 56       0.029339759847
 57       0.007629663726
 58       0.026018091769
 59       0.005339288959
 60      -0.079338178321
 61      -0.007776595202
 62       0.030105936013
 63      -0.008902726943
 64       0.075303423568
 65       0.022784890905
 66       0.104704424962
 67       0.099752756308
 68       0.006983356269
 69      -0.058904547459
 70      -0.047693819988
 71      -0.139771063524
 72      -0.116163103605
 73       0.024647462900
 74       0.254784350144
 75       0.044312792878
 76       0.063428871172
 77      -0.019105634779
 78      -0.677065924761
 79       0.005021133046
 80      -0.065795881909
 81      -0.041452602405
 82      -0.016934866595
 83      -0.019623568605
 84      -0.007659098138
 85       0.011506801478
 86      -0.021550518404
 87       0.052764432743
 88      -0.020541553559
 89       0.005567311538
 90       0.000647329344
 91       0.059053370593
 92       0.029339683715
 93       0.007629582784
 94      -0.026018090998
 95      -0.005338658589
 96      -0.079338164513
 97      -0.007776601027
 98      -0.030106417763
 99       0.008902731444
100      -0.075304819850
101       0.022784062801
102       0.104703604672
103      -0.099752752874
104      -0.006982885584
105      -0.058904804905
106      -0.047693570451
107       0.139771117065
108       0.116163099998
109      -0.024648158566
110       0.254784111540
111       0.044312569952
112      -0.063428885811
113       0.019111025727
114      -0.677066167188
115       0.005021379576
116       0.065795766454
117       0.041452610211
118      -0.016934836565
119      -0.019623507316
120       0.007659039686
121       0.011506801738
122       0.021550098937
123       0.052764284319
124       0.020541401113
125       0.005567156315
126      -0.000647331546
127       0.059053148164
128       0.029339759865
129      -0.007629663791
130      -0.026018091700
131       0.005339288977
132      -0.079338178292
133       0.007776595015
134      -0.030105936082
135      -0.008902726923
136      -0.075303423748
137       0.022784891157
138      -0.104704425018
139      -0.099752756085
140       0.006983356274
141      -0.058904547363
142       0.047693819847
143       0.139771063848
144      -0.116163103326
145      -0.024647462956
146       0.254784350252
147      -0.044312793470
148      -0.063428871040
149      -0.019105634826
150      -0.677065924771
151      -0.005021134616
152       0.065795882064
153      -0.041452602314
154       0.016934866634
155      -0.019623568626
156       0.007659098179
157      -0.011506801445
158      -0.021550518456
159       0.052764432787
160       0.020541553686
161      -0.005567311553
162       0.000647329339
163      -0.059053370731
164       0.029339683734
165      -0.007629582847
166       0.026018090924
167      -0.005338658602
168      -0.079338164485
169       0.007776600835
170       0.030106417832
171       0.008902731428
172       0.075304820028
173       0.022784063051
174      -0.104703604730
175       0.099752752650
176      -0.006982885588
177      -0.058904804804
178       0.047693570309
179      -0.139771117386
180       0.116163099716
181       0.024648158627
182       0.254784111647
183      -0.044312570544
184       0.063428885665
185       0.019111025780
186      -0.677066167192
187      -0.005021381153
188      -0.065795766608
189       0.041452610118
 Sym=     1a
 Ene= -4.64136642672145E-01
 Spin= Alpha
 Occup= 2.000000
  1      -0.000000000000
  2       0.000000004022
  3       0.000000000001
  4       0.000000000000
  5      -0.003009845339
  6      -0.000000010468
  7       0.000000000003
  8      -0.000000000000
  9       0.000016586712
 10       0.000000000001
 11      -0.000000029244
 12      -0.000000000009
 13      -0.000000000001
 14       0.021902659050
 15       0.000000076178
 16      -0.000000000024
 17       0.000000000001
 18      -0.000115308996
 19       0.000000000005
 20       0.000000525138
 21       0.000000000168
 22       0.000000000001
 23      -0.395049757477
 24      -0.000001375043
 25       0.000000000439
 26      -0.000000000002
 27       0.001366042745
 28      -0.000000000007
 29      -0.000001015579
 30      -0.000000000328
 31      -0.000000000001
 32       0.763869432919
 33       0.000002658843
 34      -0.000000000864
 35      -0.000000000001
 36      -0.002668726893
 37       0.000000000004
 38       0.000001522110
 39       0.000000000491
 40      -0.000000000001
 41      -1.161817420542
 42      -0.000004052590
 43       0.000000001297
 44       0.000000000001
 45      -0.002415019712
 46      -0.004035161087
 47       0.008224778607
 48       0.007842635647
 49      -0.000031046939
 50      -0.056294587880
 51      -0.019929797085
 52       0.020472182065
 53       0.020830451526
 54      -0.000298876314
 55       0.029864457287
 56       0.010215246418
 57       0.010865927346
 58       0.000089268326
 59       0.084587204549
 60      -0.001846269848
 61       0.000785957256
 62      -0.064643210747
 63       0.000605515707
 64      -0.187364927694
 65       0.111129452736
 66       0.110074034776
 67       0.000476855595
 68       0.063155778772
 69       0.034537969965
 70      -0.033484749295
 71       0.007179815912
 72      -0.000486547489
 73      -0.093357506616
 74       0.032018599574
 75       0.029913092648
 76      -0.001973376445
 77       0.723417201112
 78       0.032532441114
 79      -0.033076050820
 80      -0.015502223776
 81       0.001050322721
 82      -0.004035034804
 83      -0.008224632337
 84      -0.007842578555
 85      -0.000031132633
 86      -0.056294427273
 87       0.019929403835
 88      -0.020472028821
 89       0.020830410061
 90      -0.000298881169
 91       0.029864016981
 92      -0.010215465080
 93      -0.010865984270
 94       0.000089462095
 95       0.084587244398
 96       0.001846861076
 97      -0.000785899538
 98      -0.064642986373
 99       0.000605449394
100      -0.187364366233
101      -0.111129622798
102      -0.110074815106
103       0.000477598778
104       0.063155830741
105      -0.034537531062
106       0.033485104560
107       0.007178774048
108      -0.000487412850
109      -0.093357322878
110      -0.032020498367
111      -0.029913423526
112      -0.001972904020
113       0.723417058662
114      -0.032527395567
115       0.033076011761
116      -0.015502714272
117       0.001050013909
118       0.004035161033
119       0.008224778597
120      -0.007842635605
121       0.000031046907
122      -0.056294587835
123      -0.019929797042
124      -0.020472181932
125      -0.020830451513
126      -0.000298876316
127      -0.029864457124
128       0.010215246423
129      -0.010865927411
130      -0.000089268251
131       0.084587204575
132      -0.001846269818
133      -0.000785957456
134       0.064643210675
135       0.000605515733
136       0.187364927503
137       0.111129453005
138      -0.110074034833
139      -0.000476855367
140       0.063155778771
141       0.034537970068
142       0.033484749153
143      -0.007179815581
144      -0.000486547210
145       0.093357506551
146       0.032018599679
147      -0.029913093259
148       0.001973376589
149       0.723417201063
150       0.032532441104
151       0.033076049207
152       0.015502223931
153       0.001050322820
154       0.004035034840
155      -0.008224632354
156       0.007842578610
157       0.000031132668
158      -0.056294427328
159       0.019929403884
160       0.020472028947
161      -0.020830410074
162      -0.000298881167
163      -0.029864017118
164      -0.010215465066
165       0.010865984188
166      -0.000089462173
167       0.084587244387
168       0.001846861100
169       0.000785899347
170       0.064642986444
171       0.000605449368
172       0.187364366412
173      -0.111129622528
174       0.110074815054
175      -0.000477599005
176       0.063155830729
177      -0.034537530959
178      -0.033485104709
179      -0.007178774383
180      -0.000487413129
181       0.093357322934
182      -0.032020498260
183       0.029913422908
184       0.001972903878
185       0.723417058708
186      -0.032527395581
187      -0.033076013375
188       0.015502714112
189       0.001050013810
 Sym=     1a
 Ene= 3.47121916533929E-02
 Spin= Alpha
 Occup= 2.000000
  1       0.000000000000
  2      -0.000000000000
  3       0.000041968500
  4      -0.000000000000
  5      -0.000000000000
  6       0.000000000000
  7       0.000111037538
  8       0.000000000000
  9       0.000000000000
 10      -0.000000000000
 11       0.000000000002
 12      -0.002580936373
 13       0.000000000000
 14       0.000000000003
 15      -0.000000000002
 16      -0.006828504615
 17      -0.000000000000
 18      -0.000000000000
 19      -0.000000000001
 20      -0.000000000003
 21       0.014592277689
 22      -0.000000000001
 23      -0.000000000018
 24       0.000000000012
 25       0.038607451308
 26       0.000000000001
 27       0.000000000000
 28       0.000000000001
 29      -0.000000000022
 30       0.069633786252
 31       0.000000000001
 32      -0.000000000050
 33       0.000000000037
 34       0.184234102090
 35      -0.000000000001
 36       0.000000000005
 37       0.000000000001
 38       0.000000000025
 39      -0.041586153986
 40      -0.000000000003
 41       0.000000000060
 42      -0.000000000044
 43      -0.110025974782
 44       0.000000000001
 45       0.000000000008
 46       0.029783399912
 47       0.009275325323
 48      -0.006304896479
 49       0.035898821760
 50      -0.034250175339
 51      -0.033109229910
 52      -0.016681155329
 53       0.001965420300
 54      -0.003029606242
 55      -0.062623130223
 56      -0.018441422166
 57       0.010786544680
 58      -0.072480014777
 59       0.078193197951
 60       0.076621828649
 61       0.028538440285
 62      -0.001863595506
 63       0.009839531886
 64       0.062510037841
 65       0.105928831380
 66       0.008387998429
 67       0.072458705142
 68      -0.124418198262
 69      -0.092971273050
 70       0.022192733658
 71       0.001943125095
 72       0.066217026047
 73       0.144786622218
 74       0.064586319068
 75       0.014456863352
 76       0.230154723200
 77      -0.103233098626
 78      -0.085949345042
 79       0.038249124002
 80       0.051612982804
 81       0.030026746589
 82      -0.029783399919
 83       0.009275325313
 84      -0.006304896490
 85      -0.035898821762
 86       0.034250175354
 87      -0.033109229889
 88      -0.016681155350
 89      -0.001965420333
 90       0.003029606241
 91       0.062623130235
 92      -0.018441422140
 93       0.010786544706
 94       0.072480014780
 95      -0.078193197976
 96       0.076621828601
 97       0.028538440333
 98       0.001863595573
 99      -0.009839531885
100      -0.062510037856
101       0.105928831394
102       0.008387998442
103      -0.072458705145
104       0.124418198250
105      -0.092971272954
106       0.022192733562
107      -0.001943125162
108      -0.066217026045
109      -0.144786622297
110       0.064586319069
111       0.014456863332
112      -0.230154723188
113       0.103233098586
114      -0.085949344965
115       0.038249123922
116      -0.051612982995
117      -0.030026746592
118       0.029783399943
119      -0.009275325310
120      -0.006304896479
121       0.035898821748
122       0.034250175374
123       0.033109229879
124      -0.016681155340
125       0.001965420338
126       0.003029606241
127      -0.062623130281
128       0.018441422135
129       0.010786544689
130      -0.072480014748
131      -0.078193198022
132      -0.076621828583
133       0.028538440302
134      -0.001863595580
135      -0.009839531883
136       0.062510037900
137      -0.105928831398
138       0.008387998505
139       0.072458705107
140       0.124418198318
141       0.092971272963
142       0.022192733606
143       0.001943125171
144      -0.066217026006
145       0.144786622381
146      -0.064586319093
147       0.014456863365
148       0.230154723056
149       0.103233098647
150       0.085949344994
151       0.038249123982
152       0.051612983019
153      -0.030026746570
154      -0.029783399933
155      -0.009275325319
156      -0.006304896472
157      -0.035898821750
158      -0.034250175360
159       0.033109229902
160      -0.016681155318
161      -0.001965420305
162      -0.003029606239
163       0.062623130263
164       0.018441422159
165       0.010786544667
166       0.072480014750
167       0.078193197998
168      -0.076621828632
169       0.028538440252
170       0.001863595512
171       0.009839531879
172      -0.062510037880
173      -0.105928831382
174       0.008387998491
175      -0.072458705106
176      -0.124418198331
177       0.092971273059
178       0.022192733703
179      -0.001943125101
180       0.066217026009
181      -0.144786622307
182      -0.064586319092
183       0.014456863382
184      -0.230154723060
185      -0.103233098689
186       0.085949345071
187       0.038249124063
188      -0.051612982833
189       0.030026746568
 Sym=     1a
 Ene= 2.50694957633091E-01
 Spin= Alpha
 Occup= 0.000000
  1      -0.000000000000
  2      -0.000004786843
  3      -0.000000000000
  4       0.000000000000
  5       0.000000000637
  6       0.000089186193
  7      -0.000000000000
  8      -0.000000000000
  9       0.000000000202
 10       0.000000000000
 11       0.001992874495
 12       0.000000000001
 13      -0.000000000001
 14      -0.000000045634
 15      -0.005767214872
 16       0.000000000001
 17       0.000000000000
 18      -0.000000001308
 19       0.000000000003
 20      -0.007901755236
 21      -0.000000000006
 22       0.000000000000
 23       0.000000204839
 24       0.026275798202
 25      -0.000000000008
 26      -0.000000000003
 27       0.000000014204
 28       0.000000000018
 29      -0.077075407338
 30      -0.000000000019
 31      -0.000000000011
 32       0.000001448309
 33       0.177841012792
 34      -0.000000000066
 35      -0.000000000004
 36      -0.000000068987
 37      -0.000000000008
 38       0.071460426616
 39       0.000000000024
 40      -0.000000000009
 41      -0.000000957812
 42      -0.109882808715
 43       0.000000000017
 44       0.000000000016
 45       0.000000209448
 46      -0.025864096398
 47       0.005684825969
 48      -0.007225575363
 49       0.029387699105
 50       0.028905471866
 51      -0.015520030381
 52      -0.028098877087
 53      -0.001699529549
 54      -0.002449619095
 55       0.055404730701
 56      -0.009700359751
 57       0.014638599546
 58      -0.059633118413
 59      -0.067694632465
 60       0.026244034988
 61       0.066490256994
 62       0.001022568479
 63       0.008360209784
 64      -0.054981926874
 65      -0.008685960899
 66      -0.094773382074
 67       0.052399659111
 68       0.105847105295
 69       0.022329451369
 70      -0.078056503935
 71       0.000966855445
 72       0.061577988272
 73      -0.149540223278
 74      -0.027306113390
 75      -0.080402909556
 76       0.241376407895
 77       0.123181756611
 78       0.050751853517
 79      -0.092135030911
 80      -0.043204090500
 81       0.022325654669
 82       0.025864215891
 83       0.005685013171
 84      -0.007225378358
 85      -0.029387712405
 86      -0.028905719150
 87      -0.015520422001
 88      -0.028098490253
 89       0.001700103398
 90       0.002449616559
 91      -0.055404929944
 92      -0.009700834873
 93       0.014638105784
 94       0.059633145830
 95       0.067695051085
 96       0.026244938243
 97       0.066489365983
 98      -0.001023769783
 99      -0.008360206722
100       0.054982046020
101      -0.008686262784
102      -0.094773673082
103      -0.052399717406
104      -0.105846746851
105       0.022327644152
106      -0.078054690061
107      -0.000965726681
108      -0.061577991719
109       0.149541881309
110      -0.027305774201
111      -0.080402899937
112      -0.241376280531
113      -0.123180902063
114       0.050750011311
115      -0.092133201278
116       0.043208053213
117      -0.022325768327
118       0.025864096384
119       0.005684825976
120       0.007225575371
121      -0.029387699123
122       0.028905471851
123      -0.015520030405
124       0.028098877095
125       0.001699529551
126      -0.002449619098
127      -0.055404730669
128      -0.009700359766
129      -0.014638599559
130       0.059633118450
131      -0.067694632431
132       0.026244035042
133      -0.066490257009
134      -0.001022568484
135       0.008360209792
136       0.054981926841
137      -0.008685960835
138       0.094773382071
139      -0.052399659127
140       0.105847105236
141       0.022329451302
142       0.078056503923
143      -0.000966855448
144       0.061577988302
145       0.149540223243
146      -0.027306113320
147       0.080402909487
148      -0.241376408071
149       0.123181756531
150       0.050751853439
151       0.092135030908
152       0.043204090467
153       0.022325654619
154      -0.025864215875
155       0.005685013176