[Molden Format]
[Atoms] (AU)
N    1    7         0.982657589101       0.996830535097       0.968484643104
N    2    7        -0.982657589101      -0.987381904433       0.987381904433
N    3    7        -0.982657589101       0.977933273768      -0.977933273768
N    4    7         0.982657589101      -0.987381904433      -0.977933273768
[GTO]
  1 0
 s    9  1.00
    45840.0000000000         0.2070013119
     6868.0000000000         0.3885023806
     1563.0000000000         0.6693241386
      442.4000000000         1.0760700264
      144.3000000000         1.5891765404
       52.1800000000         2.0467625615
       20.3400000000         2.0957271491
        8.3810000000         1.4068954098
        3.5290000000         0.4024679210
 s    9  1.00
    45840.0000000000        -0.1280239503
     6868.0000000000        -0.2451024263
     1563.0000000000        -0.4185277093
      442.4000000000        -0.6855177236
      144.3000000000        -1.0179501673
       52.1800000000        -1.4038213591
       20.3400000000        -1.5671074566
        8.3810000000        -1.4767088923
        3.5290000000        -0.6121674414
 s    1  1.00
        1.0540000000         0.7413794612
 s    1  1.00
        0.4118000000         0.3663741711
 s    1  1.00
        0.1552000000         0.1762296099
 p    3  1.00
       49.3300000000         5.8003427037
       11.3700000000         6.3555590049
        3.4350000000         5.5883087071
 p    1  1.00
        1.1820000000         1.7567579743
 p    1  1.00
        0.4173000000         0.4780799923
 p    1  1.00
        0.1428000000         0.1251268026
 d    1  1.00
        2.8370000000        10.2073567521
 d    1  1.00
        0.9680000000         1.5548601445
 d    1  1.00
        0.3350000000         0.2427939544
 f    1  1.00
        2.0270000000         7.2173104090
 f    1  1.00
        0.6850000000         0.6284319192
 g    1  1.00
        1.4270000000         2.9587028592

  2 0
 s    9  1.00
    45840.0000000000         0.2070013119
     6868.0000000000         0.3885023806
     1563.0000000000         0.6693241386
      442.4000000000         1.0760700264
      144.3000000000         1.5891765404
       52.1800000000         2.0467625615
       20.3400000000         2.0957271491
        8.3810000000         1.4068954098
        3.5290000000         0.4024679210
 s    9  1.00
    45840.0000000000        -0.1280239503
     6868.0000000000        -0.2451024263
     1563.0000000000        -0.4185277093
      442.4000000000        -0.6855177236
      144.3000000000        -1.0179501673
       52.1800000000        -1.4038213591
       20.3400000000        -1.5671074566
        8.3810000000        -1.4767088923
        3.5290000000        -0.6121674414
 s    1  1.00
        1.0540000000         0.7413794612
 s    1  1.00
        0.4118000000         0.3663741711
 s    1  1.00
        0.1552000000         0.1762296099
 p    3  1.00
       49.3300000000         5.8003427037
       11.3700000000         6.3555590049
        3.4350000000         5.5883087071
 p    1  1.00
        1.1820000000         1.7567579743
 p    1  1.00
        0.4173000000         0.4780799923
 p    1  1.00
        0.1428000000         0.1251268026
 d    1  1.00
        2.8370000000        10.2073567521
 d    1  1.00
        0.9680000000         1.5548601445
 d    1  1.00
        0.3350000000         0.2427939544
 f    1  1.00
        2.0270000000         7.2173104090
 f    1  1.00
        0.6850000000         0.6284319192
 g    1  1.00
        1.4270000000         2.9587028592

  3 0
 s    9  1.00
    45840.0000000000         0.2070013119
     6868.0000000000         0.3885023806
     1563.0000000000         0.6693241386
      442.4000000000         1.0760700264
      144.3000000000         1.5891765404
       52.1800000000         2.0467625615
       20.3400000000         2.0957271491
        8.3810000000         1.4068954098
        3.5290000000         0.4024679210
 s    9  1.00
    45840.0000000000        -0.1280239503
     6868.0000000000        -0.2451024263
     1563.0000000000        -0.4185277093
      442.4000000000        -0.6855177236
      144.3000000000        -1.0179501673
       52.1800000000        -1.4038213591
       20.3400000000        -1.5671074566
        8.3810000000        -1.4767088923
        3.5290000000        -0.6121674414
 s    1  1.00
        1.0540000000         0.7413794612
 s    1  1.00
        0.4118000000         0.3663741711
 s    1  1.00
        0.1552000000         0.1762296099
 p    3  1.00
       49.3300000000         5.8003427037
       11.3700000000         6.3555590049
        3.4350000000         5.5883087071
 p    1  1.00
        1.1820000000         1.7567579743
 p    1  1.00
        0.4173000000         0.4780799923
 p    1  1.00
        0.1428000000         0.1251268026
 d    1  1.00
        2.8370000000        10.2073567521
 d    1  1.00
        0.9680000000         1.5548601445
 d    1  1.00
        0.3350000000         0.2427939544
 f    1  1.00
        2.0270000000         7.2173104090
 f    1  1.00
        0.6850000000         0.6284319192
 g    1  1.00
        1.4270000000         2.9587028592

  4 0
 s    9  1.00
    45840.0000000000         0.2070013119
     6868.0000000000         0.3885023806
     1563.0000000000         0.6693241386
      442.4000000000         1.0760700264
      144.3000000000         1.5891765404
       52.1800000000         2.0467625615
       20.3400000000         2.0957271491
        8.3810000000         1.4068954098
        3.5290000000         0.4024679210
 s    9  1.00
    45840.0000000000        -0.1280239503
     6868.0000000000        -0.2451024263
     1563.0000000000        -0.4185277093
      442.4000000000        -0.6855177236
      144.3000000000        -1.0179501673
       52.1800000000        -1.4038213591
       20.3400000000        -1.5671074566
        8.3810000000        -1.4767088923
        3.5290000000        -0.6121674414
 s    1  1.00
        1.0540000000         0.7413794612
 s    1  1.00
        0.4118000000         0.3663741711
 s    1  1.00
        0.1552000000         0.1762296099
 p    3  1.00
       49.3300000000         5.8003427037
       11.3700000000         6.3555590049
        3.4350000000         5.5883087071
 p    1  1.00
        1.1820000000         1.7567579743
 p    1  1.00
        0.4173000000         0.4780799923
 p    1  1.00
        0.1428000000         0.1251268026
 d    1  1.00
        2.8370000000        10.2073567521
 d    1  1.00
        0.9680000000         1.5548601445
 d    1  1.00
        0.3350000000         0.2427939544
 f    1  1.00
        2.0270000000         7.2173104090
 f    1  1.00
        0.6850000000         0.6284319192
 g    1  1.00
        1.4270000000         2.9587028592

[5d]
[9g]

[MO]
 Sym= A
 Ene=       -15.7486585666
 Spin= Alpha
 Occup=  2.0000
  1       0.500157601763
  2       0.000421464966
  3       0.008517329063
  4      -0.001866882830
  5       0.000728310406
  6      -0.000903229803
  7      -0.000908691032
  8      -0.000897343790
  9       0.000229376571
 10       0.000233225744
 11       0.000225932668
 12      -0.000161400729
 13      -0.000160557079
 14      -0.000162441808
 15      -0.000185186536
 16      -0.000194383867
 17      -0.000178136094
 18      -0.000000715286
 19       0.000044736987
 20       0.000044771933
 21      -0.000000360304
 22       0.000044908327
 23       0.000003182904
 24      -0.000050392315
 25      -0.000053494818
 26       0.000001790469
 27      -0.000056562880
 28      -0.000000816797
 29       0.000162364121
 30       0.000159694967
 31      -0.000000443519
 32       0.000157565315
 33      -0.000009565141
 34       0.000006198137
 35       0.000005994969
 36       0.000000271773
 37       0.000023578094
 38      -0.000007308503
 39       0.000007488684
 40       0.000036521398
 41      -0.000024649234
 42      -0.000021921968
 43      -0.000002142667
 44       0.000035149150
 45       0.000025208614
 46      -0.000025178554
 47      -0.000010602155
 48       0.000005718167
 49       0.000005309649
 50       0.000001075455
 51      -0.000014265961
 52       0.000015301452
 53      -0.000014341727
 54      -0.000006625936
 55      -0.000000045340
 56       0.475455792244
 57       0.000404174779
 58       0.008096228263
 59      -0.001779396118
 60       0.000563851986
 61       0.000853498728
 62       0.000856770034
 63      -0.000864399083
 64      -0.000212798342
 65      -0.000211106361
 66       0.000213819833
 67       0.000134956436
 68       0.000133053438
 69      -0.000139506454
 70       0.000158555290
 71       0.000149956729
 72      -0.000155286610
 73      -0.000000089328
 74      -0.000044123890
 75      -0.000044551883
 76      -0.000000930774
 77       0.000043887132
 78       0.000002266684
 79       0.000056006304
 80       0.000054972913
 81       0.000002215798
 82      -0.000056939525
 83       0.000002818628
 84      -0.000146622560
 85      -0.000147887096
 86      -0.000000367445
 87       0.000142452766
 88      -0.000009210399
 89      -0.000005934687
 90      -0.000006283672
 91      -0.000000445589
 92       0.000022116854
 93       0.000007415342
 94      -0.000007197575
 95       0.000031941833
 96       0.000020332361
 97       0.000021857030
 98      -0.000000023720
 99       0.000039922116
100      -0.000024096376
101       0.000024535243
102      -0.000009238180
103      -0.000005497282
104      -0.000005634999
105       0.000000018353
106      -0.000014643317
107      -0.000014726567
108       0.000013923126
109      -0.000006677699
110       0.000000091581
111       0.516473796304
112       0.000433707333
113       0.008799702325
114      -0.001930671587
115       0.000841513554
116       0.000938715925
117      -0.000926364721
118       0.000935463603
119      -0.000240625690
120       0.000240119774
121      -0.000241663016
122       0.000178478674
123      -0.000174938937
124       0.000179634317
125       0.000203879377
126      -0.000209808374
127       0.000210158022
128      -0.000000708669
129       0.000045655528
130      -0.000044773612
131       0.000000532362
132      -0.000045077460
133       0.000002844551
134      -0.000050510721
135       0.000052616723
136       0.000000701650
137       0.000051621102
138       0.000000700469
139       0.000172997942
140      -0.000167441432
141       0.000002585203
142      -0.000168681519
143       0.000009583356
144      -0.000006179977
145       0.000005765391
146      -0.000000687966
147       0.000024696782
148       0.000007372482
149       0.000008054198
150      -0.000036656701
151       0.000024158324
152      -0.000022586183
153       0.000002418990
154       0.000031533333
155      -0.000028823537
156      -0.000029087225
157      -0.000010305229
158       0.000005581274
159      -0.000005733479
160       0.000000759647
161       0.000014950718
162       0.000014740295
163       0.000014439537
164      -0.000008107337
165       0.000000121847
166       0.493097806751
167       0.000417019382
168       0.008399680422
169      -0.001846046395
170       0.000684448446
171      -0.000890708796
172       0.000894168870
173       0.000887674288
174       0.000225084264
175      -0.000223326738
176      -0.000226060692
177      -0.000154204407
178       0.000152039239
179       0.000155105796
180      -0.000179043095
181       0.000170029672
182       0.000184914554
183      -0.000001523324
184      -0.000044195216
185       0.000044647381
186      -0.000000972954
187      -0.000044926324
188       0.000003642400
189       0.000055046726
190      -0.000054016165
191       0.000002328017
192       0.000053022458
193      -0.000001008436
194      -0.000154993444
195       0.000156196231
196      -0.000000349827
197      -0.000157494810
198       0.000009526002
199       0.000005200959
200      -0.000005640838
201       0.000000430765
202       0.000023288752
203      -0.000008051904
204      -0.000007767213
205      -0.000033245417
206      -0.000020967355
207       0.000020947005
208      -0.000000937536
209       0.000036096698
210       0.000026959612
211       0.000028623676
212      -0.000009286032
213      -0.000005964039
214       0.000005459551
215       0.000000041266
216       0.000014606239
217      -0.000014734620
218      -0.000014149125
219      -0.000007826525
220      -0.000000422693
 Sym= A
 Ene=       -15.7477363964
 Spin= Alpha
 Occup=  2.0000
  1       0.291945580239
  2       0.000192282228
  3       0.004865912444
  4      -0.000839595541
  5       0.001794396376
  6      -0.000478853847
  7      -0.000551615014
  8      -0.000489827808
  9       0.000239706561
 10       0.000122393494
 11       0.000210476369
 12      -0.000382849683
 13      -0.000219298380
 14      -0.000340771209
 15      -0.000515221640
 16      -0.000051993338
 17      -0.000408108219
 18      -0.000006587493
 19      -0.000006786930
 20       0.000020791981
 21      -0.000020268040
 22       0.000014628028
 23       0.000014423968
 24       0.000020900870
 25       0.000022101731
 26       0.000042132458
 27       0.000021008306
 28       0.000008012609
 29       0.000145899981
 30       0.000150290273
 31       0.000033748266
 32       0.000152067006
 33       0.000000488562
 34      -0.000014487564
 35       0.000004903037
 36      -0.000022280136
 37       0.000010849881
 38      -0.000010030955
 39      -0.000001038157
 40       0.000017005951
 41       0.000001729076
 42      -0.000037520255
 43       0.000006913498
 44      -0.000036690220
 45       0.000006377833
 46      -0.000047168046
 47      -0.000007366672
 48       0.000004700871
 49       0.000002025096
 50       0.000003074142
 51       0.000001867278
 52       0.000016743567
 53       0.000008298420
 54      -0.000004588142
 55       0.000006529271
 56       0.151364563284
 57       0.000100339348
 58       0.002523333309
 59      -0.000441007625
 60       0.000902852891
 61       0.000303970083
 62       0.000237527089
 63      -0.000247496537
 64      -0.000020001922
 65      -0.000142822989
 66       0.000130970334
 67       0.000045826776
 68       0.000222291978
 69      -0.000206515450
 70      -0.000131247096
 71       0.000336437902
 72      -0.000285259631
 73      -0.000009179901
 74      -0.000015882785
 75       0.000012540092
 76       0.000020028013
 77       0.000012778284
 78       0.000019245079
 79      -0.000009996962
 80      -0.000009252948
 81      -0.000041060252
 82       0.000009163783
 83       0.000018166247
 84      -0.000075285368
 85      -0.000081870736
 86      -0.000039155929
 87       0.000071888668
 88       0.000000557368
 89      -0.000003599933
 90       0.000015319763
 91       0.000021029643
 92       0.000005951411
 93       0.000000570904
 94      -0.000010610037
 95       0.000000068022
 96       0.000030891907
 97      -0.000006031395
 98      -0.000003404545
 99      -0.000018232334
100      -0.000038008761
101      -0.000004601777
102      -0.000005119329
103      -0.000002555719
104      -0.000005500284
105      -0.000004508846
106       0.000005184904
107       0.000008992283
108       0.000016988695
109      -0.000000809701
110      -0.000006394537
111      -0.832558232289
112      -0.000540054392
113      -0.013874666102
114       0.002396373808
115      -0.005304571714
116      -0.001447047271
117       0.001438775282
118      -0.001458381298
119       0.000568612344
120      -0.000552996068
121       0.000540831707
122      -0.000945727953
123       0.000925009462
124      -0.000905561971
125      -0.001010916373
126       0.000952444487
127      -0.000905358643
128      -0.000003348943
129      -0.000025786619
130       0.000028033930
131       0.000001815496
132       0.000021914929
133       0.000004206680
134      -0.000068788204
135       0.000066077941
136      -0.000007568125
137       0.000066548155
138       0.000007760158
139      -0.000434436151
140       0.000434156742
141      -0.000005937097
142       0.000435453606
143      -0.000000821767
144       0.000001678780
145      -0.000004347078
146      -0.000003038151
147      -0.000032851895
148       0.000000783741
149       0.000001816860
150       0.000084458899
151      -0.000044334940
152       0.000048742416
153      -0.000000418845
154       0.000111437278
155       0.000055766273
156       0.000061558032
157       0.000018676508
158      -0.000001454262
159       0.000001503585
160      -0.000000483069
161      -0.000011920042
162      -0.000008962141
163      -0.000006202935
164       0.000016547955
165       0.000000579336
166       0.429960507624
167       0.000281326433
168       0.007166557389
169      -0.001249555459
170       0.002657552338
171      -0.000725173605
172       0.000734773374
173       0.000783345862
174       0.000324441960
175      -0.000310597485
176      -0.000214700605
177      -0.000524036360
178       0.000504160588
179       0.000366223015
180      -0.000636784252
181       0.000585037679
182       0.000221778424
183       0.000018701696
184      -0.000020168090
185       0.000023473861
186      -0.000002671825
187       0.000001809708
188      -0.000038114238
189      -0.000030852920
190       0.000030715832
191       0.000005476927
192      -0.000030796514
193      -0.000037113095
194      -0.000220150209
195       0.000218469214
196       0.000003083008
197      -0.000225594205
198       0.000002743098
199       0.000012698748
200      -0.000014984688
201       0.000002370267
202       0.000016940560
203       0.000010332349
204       0.000011581240
205      -0.000071330950
206      -0.000016057636
207       0.000018912176
208      -0.000000574196
209      -0.000054984000
210       0.000015678056
211       0.000019621445
212      -0.000007127601
213       0.000005320143
214      -0.000006158611
215       0.000000654766
216       0.000018800453
217      -0.000001233021
218       0.000001679790
219      -0.000011645949
220      -0.000000564628
 Sym= A
 Ene=       -15.7477221740
 Spin= Alpha
 Occup=  2.0000
  1       0.801934940060
  2       0.000517820152
  3       0.013353225653
  4      -0.002305064994
  5       0.005072812416
  6      -0.001406426780
  7      -0.001391887791
  8      -0.001380829225
  9       0.000510190414
 10       0.000564881571
 11       0.000527284167
 12      -0.000854754139
 13      -0.000936532398
 14      -0.000876053943
 15      -0.000824336619
 16      -0.001015295761
 17      -0.000909388495
 18      -0.000000452384
 19       0.000030122170
 20       0.000018977724
 21       0.000007742885
 22       0.000024545679
 23       0.000003470995
 24       0.000063653486
 25       0.000061746341
 26      -0.000014388598
 27       0.000060112750
 28      -0.000009721863
 29       0.000410411802
 30       0.000418801300
 31      -0.000020319625
 32       0.000425408960
 33      -0.000000558628
 34       0.000002692522
 35      -0.000003631462
 36       0.000007433592
 37       0.000031423669
 38      -0.000000095163
 39       0.000003935422
 40       0.000076095438
 41      -0.000051507255
 42      -0.000037298517
 43      -0.000000706533
 44      -0.000106216314
 45       0.000069354181
 46      -0.000051502101
 47      -0.000018924358
 48       0.000002483674
 49       0.000003170253
 50      -0.000001090783
 51      -0.000008186658
 52       0.000003862909
 53      -0.000013397521
 54      -0.000015064587
 55      -0.000002803785
 56      -0.262437670795
 57      -0.000169687637
 58      -0.004369905279
 59       0.000765750048
 60      -0.001621032399
 61      -0.000448437131
 62      -0.000423448300
 63       0.000496458570
 64       0.000186219108
 65       0.000234103574
 66      -0.000103706248
 67      -0.000303455351
 68      -0.000372633390
 69       0.000180734322
 70      -0.000335977406
 71      -0.000519969229
 72       0.000031029276
 73      -0.000020214457
 74       0.000021997673
 75       0.000011038769
 76      -0.000007759143
 77       0.000008305053
 78       0.000039508333
 79       0.000018365294
 80       0.000018510698
 81       0.000015559976
 82      -0.000017195799
 83       0.000039667031
 84       0.000130657066
 85       0.000132852203
 86       0.000016000749
 87      -0.000144752024
 88       0.000002327301
 89       0.000017024628
 90       0.000009879871
 91      -0.000008052599
 92      -0.000010222407
 93       0.000012862230
 94      -0.000008636586
 95      -0.000055711298
 96      -0.000014149127
 97       0.000000104165
 98       0.000000970386
 99       0.000033464623
100       0.000015059507
101       0.000001676468
102       0.000002693959
103      -0.000007266965
104      -0.000006090582
105       0.000001554484
106       0.000017970127
107      -0.000007449284
108      -0.000002744982
109       0.000009573204
110       0.000002736839
111      -0.036278663059
112      -0.000025092142
113      -0.000605383288
114       0.000099516856
115      -0.000210515463
116      -0.000048207465
117       0.000105796524
118      -0.000034449615
119       0.000047306337
120       0.000053420277
121       0.000072043752
122      -0.000072104547
123      -0.000069844282
124      -0.000107585115
125      -0.000137578311
126      -0.000257960623
127      -0.000229961190
128       0.000014362902
129       0.000016152913
130       0.000007548685
131       0.000016889851
132       0.000013374190
133      -0.000030288290
134      -0.000002336559
135       0.000002331446
136      -0.000035553654
137       0.000002635398
138      -0.000025009256
139      -0.000016563451
140       0.000018801524
141      -0.000029366095
142       0.000017001943
143       0.000001700223
144      -0.000018613876
145       0.000002013735
146      -0.000018740615
147      -0.000001477301
148      -0.000013568461
149      -0.000004597509
150      -0.000020466083
151       0.000010196905
152       0.000022646663
153       0.000004858524
154       0.000003967407
155      -0.000003869965
156       0.000031020087
157       0.000002289918
158      -0.000006557510
159       0.000004317123
160      -0.000002599087
161       0.000009710630
162      -0.000014217588
163       0.000006682707
164      -0.000001614710
165       0.000005192188
166      -0.522371600820
167      -0.000339273280
168      -0.008701489473
169       0.001507455403
170      -0.003266799550
171       0.000941609006
172      -0.000887001749
173      -0.000895092348
174      -0.000284719302
175       0.000388598491
176       0.000365042751
177       0.000483886588
178      -0.000634421367
179      -0.000599959090
180       0.000356668822
181      -0.000754073741
182      -0.000661942496
183       0.000006108907
184       0.000026088244
185      -0.000002125858
186      -0.000016795671
187       0.000021116394
188      -0.000013423131
189       0.000038496316
190      -0.000038758543
191       0.000034169918
192       0.000039500579
193      -0.000008166971
194       0.000268830590
195      -0.000274324964
196       0.000033286874
197       0.000269269899
198       0.000000194071
199      -0.000004399306
200      -0.000010963026
201       0.000018001047
202      -0.000020478585
203      -0.000000187058
204       0.000008547995
205       0.000040725373
206       0.000047073226
207      -0.000015970945
208      -0.000002608554
209       0.000067776196
210      -0.000060535089
211      -0.000024767974
212       0.000013086453
213       0.000002779415
214      -0.000004728185
215       0.000003574557
216      -0.000001873321
217      -0.000004235339
218       0.000017915453
219       0.000008849171
220      -0.000005285150
 Sym= A
 Ene=       -15.7476958402
 Spin= Alpha
 Occup=  2.0000
  1       0.087516063137
  2       0.000053612448
  3       0.001454020534
  4      -0.000253122927
  5       0.000591928969
  6      -0.000122387298
  7      -0.000143354964
  8      -0.000191634644
  9       0.000117786386
 10       0.000081728276
 11      -0.000016269406
 12      -0.000187573545
 13      -0.000134751969
 14       0.000011035159
 15      -0.000318415800
 16      -0.000181038259
 17       0.000180756935
 18       0.000021444802
 19       0.000006924989
 20       0.000015565171
 21      -0.000006013649
 22      -0.000015712709
 23      -0.000044046485
 24       0.000007444846
 25       0.000007013090
 26       0.000012609824
 27       0.000007872568
 28      -0.000042857654
 29       0.000044187082
 30       0.000040742306
 31       0.000010889894
 32       0.000058232120
 33      -0.000002640629
 34       0.000011424636
 35       0.000017002062
 36      -0.000006308669
 37       0.000003946719
 38       0.000010787653
 39      -0.000013591692
 40       0.000041426340
 41       0.000009274810
 42      -0.000000383530
 43       0.000000826406
 44      -0.000012956948
 45      -0.000012953226
 46       0.000000406859
 47       0.000001954060
 48      -0.000006770775
 49      -0.000008003901
 50       0.000001783611
 51      -0.000017344448
 52      -0.000000387545
 53       0.000008244875
 54      -0.000006688295
 55       0.000001736782
 56      -0.817502626217
 57      -0.000528049173
 58      -0.013604118958
 59       0.002346870053
 60      -0.005093342780
 61      -0.001406669163
 62      -0.001430028519
 63       0.001418503704
 64       0.000551123167
 65       0.000515303000
 66      -0.000560478608
 67      -0.000910440132
 68      -0.000858535222
 69       0.000923660412
 70      -0.000957483060
 71      -0.000820167747
 72       0.000989439309
 73       0.000004770829
 74       0.000019720625
 75       0.000028395369
 76       0.000006724317
 77      -0.000029225457
 78      -0.000014275397
 79       0.000059513968
 80       0.000060079947
 81      -0.000014334179
 82      -0.000057311298
 83      -0.000011021248
 84       0.000426189223
 85       0.000423830899
 86      -0.000010090431
 87      -0.000421734898
 88       0.000000517960
 89      -0.000005508245
 90       0.000000176305
 91       0.000006420849
 92      -0.000031684228
 93      -0.000005673309
 94       0.000002909415
 95      -0.000068862141
 96      -0.000044473809
 97      -0.000054955212
 98      -0.000000824662
 99       0.000105478376
100       0.000057588915
101      -0.000069054360
102       0.000019810939
103       0.000005349176
104       0.000004433109
105      -0.000001572950
106       0.000005460139
107       0.000013430591
108      -0.000005692291
109       0.000014701714
110      -0.000001470708
111       0.157889926685
112       0.000100084571
113       0.002626722548
114      -0.000446381383
115       0.001042720341
116       0.000315498594
117      -0.000264182080
118       0.000242794503
119      -0.000034964707
120       0.000121179710
121      -0.000165303539
122       0.000078072675
123      -0.000203246659
124       0.000267492852
125      -0.000088646892
126      -0.000243611206
127       0.000408024937
128      -0.000016742419
129       0.000007776266
130       0.000012766387
131       0.000014562002
132      -0.000017802656
133       0.000034989602
134       0.000014611960
135      -0.000013998300
136      -0.000029645556
137      -0.000013802243
138       0.000029599178
139       0.000084675420
140      -0.000088163233
141      -0.000025751521
142      -0.000079829368
143      -0.000001627382
144       0.000004711254
145      -0.000018308340
146      -0.000015242295
147       0.000006130991
148       0.000006217941
149       0.000013736179
150       0.000010332730
151       0.000028211526
152      -0.000001797217
153       0.000003118021
154      -0.000022205442
155      -0.000037977963
156      -0.000008625399
157      -0.000006206886
158       0.000005517249
159      -0.000007666469
160      -0.000003014907
161      -0.000010283845
162      -0.000003391444
163       0.000014779831
164      -0.000000056919
165       0.000004390797
166       0.534102202672
167       0.000342797022
168       0.008888264900
169      -0.001523301256
170       0.003412131317
171      -0.000912534702
172       0.000962771901
173       0.000906294729
174       0.000384003246
175      -0.000297266629
176      -0.000390884558
177      -0.000638541537
178       0.000512262643
179       0.000648216376
180      -0.000718760208
181       0.000385256322
182       0.000743558653
183      -0.000010491039
184      -0.000001617410
185       0.000022148932
186      -0.000015008844
187      -0.000023904870
188       0.000021950284
189      -0.000042287185
190       0.000042862721
191       0.000031435010
192      -0.000042785806
193       0.000016088652
194      -0.000283748014
195       0.000279100504
196       0.000026544641
197      -0.000277720778
198      -0.000000557701
199      -0.000013253188
200      -0.000000530254
201       0.000015108401
202       0.000020763485
203      -0.000009957649
204      -0.000002562533
205      -0.000036074678
206      -0.000021211781
207       0.000046752345
208      -0.000002598483
209      -0.000071575840
210       0.000031238537
211       0.000061093715
212      -0.000013833948
213      -0.000006642100
214       0.000004077364
215       0.000003343889
216      -0.000001268585
217      -0.000017012796
218       0.000001242161
219      -0.000008499154
220      -0.000004518542
 Sym= A
 Ene=        -1.6517938294
 Spin= Alpha
 Occup=  2.0000
  1       0.005385618096
  2      -0.141090068429
  3      -0.107955377293
  4      -0.198230896234
  5      -0.042016071862
  6       0.017922081895
  7       0.017904305815
  8       0.017931025934
  9       0.034898250256
 10       0.034844711218
 11       0.034934433264
 12       0.040540771002
 13       0.040564166511
 14       0.040504424567
 15       0.006353421501
 16       0.006383221106
 17       0.006322053594
 18      -0.000000100668
 19      -0.001351644519
 20      -0.001335289721
 21      -0.000001034204
 22      -0.001319935701
 23       0.000019777765
 24      -0.006762354262
 25      -0.006687414367
 26       0.000007620506
 27      -0.006614350797
 28       0.000085910972
 29      -0.008290430741
 30      -0.008272529221
 31       0.000047131829
 32      -0.008256619278
 33      -0.000189893937
 34       0.000127649191
 35       0.000111859738
 36       0.000012025861