[Molden Format]
[Title]
 Molden file created by orca_2mkl for BaseName=./methane

[Atoms] AU
C    1   6          0.0000000000         0.0000000000         0.0000000000 
H    2   1          1.1888607259         1.1888607259         1.1888607259 
H    3   1         -1.1888607259        -1.1888607259         1.1888607259 
H    4   1          1.1888607259        -1.1888607259        -1.1888607259 
H    5   1         -1.1888607259         1.1888607259        -1.1888607259 
[GTO]
  1 0
s  11 1.0 
   312100.0000000000         0.0624123834
    46740.0000000000         0.1168617815
    10640.0000000000         0.2025229998
     3013.0000000000         0.3318838459
      982.8000000000         0.5196895195
      354.8000000000         0.7796582370
      138.4000000000         1.1099778348
       57.3500000000         1.4602361505
       24.9200000000         1.6798835992
       11.2300000000         1.5592862930
        5.2010000000         0.9802029621
s   1 1.0 
        2.4260000000         1.3854095902
s   1 1.0 
        0.9673000000         0.6951539311
s   1 1.0 
        0.4456000000         0.3887039723
s   1 1.0 
        0.1971000000         0.2108264328
s   1 1.0 
        0.0863500000         0.1135290095
f   3 1.0 
       60.0434382795       427.8468937105
       22.1675054852        42.5113982940
        4.8023959699       194.1588225094
f   1 1.0 
        1.4833907695        13.8460251713
f   1 1.0 
        0.4617895271         1.0023035251
f   1 1.0 
        0.3024922807         0.3869075870
f   1 1.0 
        0.0902841222         0.0254756741

  2 0
s   8 1.0 
    13940.8000000000         0.3056531351
     3471.4300000000         0.1947272791
     1903.1800000000         0.4070940042
      623.2860000000         0.7103835792
      290.3600000000         0.6711450512
      126.5850000000         1.5689744399
       44.6955000000         2.7553032183
       16.0038000000         4.3513600753
s   1 1.0 
        6.0805600000         2.7597375063
s   1 1.0 
        2.4762200000         1.4068636624
s   1 1.0 
        1.0757100000         0.7528032696
s   1 1.0 
        0.4896820000         0.4172013427
s   1 1.0 
        0.2297860000         0.2365390053
s   1 1.0 
        0.1099655000         0.1360982159
s   1 1.0 
        0.0523230000         0.0779703655
f   3 1.0 
       10.1787046997         0.7149026790
        2.3952640718        -4.5166241271
        1.0486496863         6.8087601446
f   1 1.0 
        0.7201895699         2.7243032026
f   1 1.0 
        0.3328151500         0.4796859807
f   1 1.0 
        0.1216647326         0.0498448929

  3 0
s   8 1.0 
    13940.8000000000         0.3056531351
     3471.4300000000         0.1947272791
     1903.1800000000         0.4070940042
      623.2860000000         0.7103835792
      290.3600000000         0.6711450512
      126.5850000000         1.5689744399
       44.6955000000         2.7553032183
       16.0038000000         4.3513600753
s   1 1.0 
        6.0805600000         2.7597375063
s   1 1.0 
        2.4762200000         1.4068636624
s   1 1.0 
        1.0757100000         0.7528032696
s   1 1.0 
        0.4896820000         0.4172013427
s   1 1.0 
        0.2297860000         0.2365390053
s   1 1.0 
        0.1099655000         0.1360982159
s   1 1.0 
        0.0523230000         0.0779703655
f   3 1.0 
       10.1787046997         0.7149026790
        2.3952640718        -4.5166241271
        1.0486496863         6.8087601446
f   1 1.0 
        0.7201895699         2.7243032026
f   1 1.0 
        0.3328151500         0.4796859807
f   1 1.0 
        0.1216647326         0.0498448929

  4 0
s   8 1.0 
    13940.8000000000         0.3056531351
     3471.4300000000         0.1947272791
     1903.1800000000         0.4070940042
      623.2860000000         0.7103835792
      290.3600000000         0.6711450512
      126.5850000000         1.5689744399
       44.6955000000         2.7553032183
       16.0038000000         4.3513600753
s   1 1.0 
        6.0805600000         2.7597375063
s   1 1.0 
        2.4762200000         1.4068636624
s   1 1.0 
        1.0757100000         0.7528032696
s   1 1.0 
        0.4896820000         0.4172013427
s   1 1.0 
        0.2297860000         0.2365390053
s   1 1.0 
        0.1099655000         0.1360982159
s   1 1.0 
        0.0523230000         0.0779703655
f   3 1.0 
       10.1787046997         0.7149026790
        2.3952640718        -4.5166241271
        1.0486496863         6.8087601446
f   1 1.0 
        0.7201895699         2.7243032026
f   1 1.0 
        0.3328151500         0.4796859807
f   1 1.0 
        0.1216647326         0.0498448929

  5 0
s   8 1.0 
    13940.8000000000         0.3056531351
     3471.4300000000         0.1947272791
     1903.1800000000         0.4070940042
      623.2860000000         0.7103835792
      290.3600000000         0.6711450512
      126.5850000000         1.5689744399
       44.6955000000         2.7553032183
       16.0038000000         4.3513600753
s   1 1.0 
        6.0805600000         2.7597375063
s   1 1.0 
        2.4762200000         1.4068636624
s   1 1.0 
        1.0757100000         0.7528032696
s   1 1.0 
        0.4896820000         0.4172013427
s   1 1.0 
        0.2297860000         0.2365390053
s   1 1.0 
        0.1099655000         0.1360982159
s   1 1.0 
        0.0523230000         0.0779703655
f   3 1.0 
       10.1787046997         0.7149026790
        2.3952640718        -4.5166241271
        1.0486496863         6.8087601446
f   1 1.0 
        0.7201895699         2.7243032026
f   1 1.0 
        0.3328151500         0.4796859807
f   1 1.0 
        0.1216647326         0.0498448929

[5D]
[9G]
[MO]
 Sym=     1a
 Ene= -1.18868708404221E+01
 Spin= Alpha
 Occup= 2.000000
  1       0.857385581227
  2       0.177035948424
  3       0.012837604612
  4       0.003179968287
  5      -0.004846899328
  6       0.009451689676
  7       0.000000000000
  8      -0.000000000000
  9      -0.000000000000
 10      -0.000000000000
 11      -0.000002266032
 12      -0.000000000000
 13      -0.000000000000
 14      -0.000000000000
 15      -0.000000000000
 16       0.000000000000
 17      -0.000000000000
 18       0.000128397207
 19       0.000000000000
 20      -0.000000000000
 21      -0.000000000000
 22       0.000000000000
 23      -0.000000000000
 24       0.000000000000
 25       0.000476265824
 26      -0.000000000000
 27       0.000000000000
 28      -0.000000000000
 29      -0.000000000000
 30       0.000000000000
 31       0.000000000000
 32      -0.000848258091
 33      -0.000000000000
 34      -0.000000000000
 35      -0.000000000000
 36       0.000000000000
 37      -0.000000000000
 38      -0.000000000000
 39       0.000513844027
 40       0.000000000000
 41      -0.000000000000
 42       0.000008295898
 43       0.000008320682
 44       0.000038090845
 45      -0.000000896563
 46       0.000323804986
 47       0.000895578124
 48      -0.002861411352
 49       0.000037671102
 50       0.000042694062
 51      -0.000026144667
 52      -0.000026144667
 53      -0.000000000000
 54      -0.000049333914
 55      -0.000033752620
 56       0.000033752620
 57      -0.000025189402
 58       0.000015425295
 59       0.000015425295
 60       0.000000000000
 61      -0.000033071491
 62       0.000019913970
 63      -0.000019913970
 64       0.000030038571
 65      -0.000018394793
 66      -0.000018394793
 67      -0.000000000000
 68       0.000074534482
 69      -0.000023747576
 70       0.000023747576
 71      -0.000017358101
 72       0.000010629623
 73       0.000010629623
 74       0.000000000000
 75      -0.000045614201
 76       0.000013722784
 77      -0.000013722784
 78       0.000008295898
 79       0.000008320682
 80       0.000038090844
 81      -0.000000896562
 82       0.000323804985
 83       0.000895578126
 84      -0.002861411354
 85       0.000037671102
 86       0.000042694062
 87       0.000026144667
 88       0.000026144667
 89       0.000000000000
 90      -0.000049333914
 91       0.000033752620
 92      -0.000033752620
 93      -0.000025189401
 94      -0.000015425295
 95      -0.000015425295
 96      -0.000000000000
 97      -0.000033071491
 98      -0.000019913970
 99       0.000019913970
100       0.000030038571
101       0.000018394793
102       0.000018394793
103       0.000000000000
104       0.000074534482
105       0.000023747576
106      -0.000023747576
107      -0.000017358101
108      -0.000010629623
109      -0.000010629623
110       0.000000000000
111      -0.000045614201
112      -0.000013722784
113       0.000013722784
114       0.000008295898
115       0.000008320682
116       0.000038090845
117      -0.000000896562
118       0.000323804986
119       0.000895578125
120      -0.002861411353
121       0.000037671102
122      -0.000042694062
123      -0.000026144667
124       0.000026144667
125      -0.000000000000
126      -0.000049333914
127      -0.000033752620
128      -0.000033752620
129       0.000025189402
130       0.000015425295
131      -0.000015425295
132       0.000000000000
133      -0.000033071491
134       0.000019913970
135       0.000019913970
136      -0.000030038571
137      -0.000018394793
138       0.000018394793
139       0.000000000000
140       0.000074534482
141      -0.000023747576
142      -0.000023747576
143       0.000017358101
144       0.000010629623
145      -0.000010629623
146      -0.000000000000
147      -0.000045614201
148       0.000013722784
149       0.000013722784
150       0.000008295898
151       0.000008320682
152       0.000038090845
153      -0.000000896562
154       0.000323804986
155       0.000895578124
156      -0.002861411353
157       0.000037671102
158      -0.000042694062
159       0.000026144667
160      -0.000026144667
161       0.000000000000
162      -0.000049333914
163       0.000033752620
164       0.000033752620
165       0.000025189401
166      -0.000015425295
167       0.000015425295
168      -0.000000000000
169      -0.000033071491
170      -0.000019913970
171      -0.000019913970
172      -0.000030038571
173       0.000018394793
174      -0.000018394793
175       0.000000000000
176       0.000074534482
177       0.000023747576
178       0.000023747576
179       0.000017358101
180      -0.000010629623
181       0.000010629623
182       0.000000000000
183      -0.000045614201
184      -0.000013722784
185      -0.000013722784
 Sym=     1a
 Ene= -1.18236543853684E+00
 Spin= Alpha
 Occup= 2.000000
  1      -0.208990583586
  2      -0.189817823080
  3       0.230312804532
  4       0.313480679236
  5       0.570266048804
  6      -1.430179591862
  7      -0.000000000000
  8       0.000000000000
  9      -0.000000000000
 10       0.000000000000
 11      -0.000663866188
 12       0.000000000000
 13       0.000000000000
 14       0.000000000000
 15      -0.000000000000
 16       0.000000000000
 17      -0.000000000000
 18       0.006953084829
 19      -0.000000000000
 20      -0.000000000000
 21      -0.000000000000
 22       0.000000000000
 23      -0.000000000000
 24      -0.000000000000
 25       0.034860546003
 26       0.000000000000
 27       0.000000000001
 28       0.000000000000
 29      -0.000000000000
 30       0.000000000001
 31       0.000000000000
 32      -0.012767482546
 33      -0.000000000001
 34      -0.000000000001
 35      -0.000000000001
 36       0.000000000000
 37      -0.000000000001
 38      -0.000000000000
 39      -0.074672983261
 40       0.000000000000
 41       0.000000000001
 42       0.003230189494
 43       0.005804255393
 44       0.022474851248
 45       0.031232532605
 46       0.038970163245
 47       0.010517052655
 48       0.416559013636
 49       0.000097893708
 50      -0.000208276554
 51       0.000127542821
 52       0.000127542821
 53      -0.000000000000
 54       0.003004092377
 55       0.000164657074
 56      -0.000164657074
 57      -0.000754360680
 58       0.000461949687
 59       0.000461949687
 60       0.000000000000
 61      -0.003816892881
 62       0.000596374481
 63      -0.000596374481
 64       0.000204151251
 65      -0.000125016599
 66      -0.000125016598
 67       0.000000000000
 68      -0.000124337921
 69      -0.000161395735
 70       0.000161395735
 71       0.002495533694
 72      -0.001528196048
 73      -0.001528196047
 74      -0.000000000000
 75       0.001349996990
 76      -0.001972892613
 77       0.001972892613
 78       0.003230189494
 79       0.005804255393
 80       0.022474851248
 81       0.031232532605
 82       0.038970163249
 83       0.010517052654
 84       0.416559013639
 85       0.000097893707
 86      -0.000208276554
 87      -0.000127542821
 88      -0.000127542821
 89       0.000000000000
 90       0.003004092377
 91      -0.000164657074
 92       0.000164657074
 93      -0.000754360680
 94      -0.000461949686
 95      -0.000461949687
 96      -0.000000000000
 97      -0.003816892881
 98      -0.000596374481
 99       0.000596374481
100       0.000204151251
101       0.000125016598
102       0.000125016598
103      -0.000000000000
104      -0.000124337921
105       0.000161395734
106      -0.000161395735
107       0.002495533695
108       0.001528196047
109       0.001528196048
110       0.000000000000
111       0.001349996990
112       0.001972892613
113      -0.001972892614
114       0.003230189494
115       0.005804255393
116       0.022474851249
117       0.031232532603
118       0.038970163254
119       0.010517052647
120       0.416559013647
121       0.000097893704
122       0.000208276554
123       0.000127542821
124      -0.000127542821
125      -0.000000000000
126       0.003004092377
127       0.000164657074
128       0.000164657074
129       0.000754360679
130       0.000461949687
131      -0.000461949687
132       0.000000000000
133      -0.003816892883
134       0.000596374481
135       0.000596374481
136      -0.000204151250
137      -0.000125016599
138       0.000125016599
139       0.000000000000
140      -0.000124337920
141      -0.000161395735
142      -0.000161395735
143      -0.002495533693
144      -0.001528196046
145       0.001528196046
146      -0.000000000000
147       0.001349996988
148      -0.001972892613
149      -0.001972892613
150       0.003230189494
151       0.005804255393
152       0.022474851247
153       0.031232532605
154       0.038970163246
155       0.010517052647
156       0.416559013642
157       0.000097893705
158       0.000208276554
159      -0.000127542821
160       0.000127542821
161       0.000000000000
162       0.003004092377
163      -0.000164657074
164      -0.000164657074
165       0.000754360680
166      -0.000461949687
167       0.000461949687
168      -0.000000000000
169      -0.003816892881
170      -0.000596374481
171      -0.000596374481
172      -0.000204151251
173       0.000125016599
174      -0.000125016599
175      -0.000000000000
176      -0.000124337921
177       0.000161395735
178       0.000161395735
179      -0.002495533694
180       0.001528196046
181      -0.001528196046
182       0.000000000000
183       0.001349996989
184       0.001972892612
185       0.001972892612
 Sym=     1a
 Ene= -5.52529881944023E-01
 Spin= Alpha
 Occup= 2.000000
  1      -0.000000000001
  2      -0.000000000002
  3       0.000000000007
  4      -0.000000000026
  5       0.000000000083
  6      -0.000000000634
  7      -0.000690941596
  8      -0.000108223204
  9       0.000288130946
 10       0.000000000000
 11       0.000000000000
 12      -0.000139715555
 13      -0.000371975452
 14       0.002425763418
 15       0.000379950974
 16      -0.001011572505
 17       0.000000000000
 18      -0.000000000000
 19       0.000490514598
 20       0.001305934488
 21      -0.103989061195
 22      -0.016287960631
 23       0.043364687013
 24       0.000000000000
 25       0.000000000003
 26      -0.021027666756
 27      -0.055983570205
 28       0.173557955843
 29       0.027184639436
 30      -0.072375751315
 31      -0.000000000000
 32      -0.000000000008
 33       0.035095218603
 34       0.093436693171
 35      -0.107426373655
 36      -0.016826351756
 37       0.044798087600
 38       0.000000000000
 39      -0.000000000040
 40      -0.021722726709
 41      -0.057834082405
 42       0.005290089917
 43       0.010468852979
 44       0.040645039625
 45       0.012780878932
 46       0.244669343786
 47       0.296880732351
 48       0.141828544286
 49      -0.053693686323
 50      -0.000799117971
 51       0.010812115419
 52      -0.009178982421
 53       0.012397281712
 54       0.033575484402
 55       0.020852922288
 56      -0.015289202213
 57       0.012162322659
 58      -0.031199000580
 59       0.004784487285
 60      -0.018424473343
 61      -0.088323325641
 62      -0.050524199805
 63       0.034156755705
 64       0.000212584118
 65       0.046327451198
 66       0.049894317540
 67      -0.038553475007
 68       0.078237342281
 69       0.038367610860
 70       0.019985145546
 71       0.044649022495
 72       0.023396918271
 73      -0.049090093392
 74       0.034938286121
 75      -0.029681072961
 76       0.049635636135
 77      -0.013109288795
 78       0.002133557746
 79       0.004222216181
 80       0.016392639731
 81       0.005154684734
 82       0.098678128729
 83       0.119735618890
 84       0.057201181656
 85      -0.021655318763
 86       0.010277250843
 87       0.015785151385
 88      -0.004205946455
 89      -0.012397281712
 90       0.013541402210
 91      -0.015949865730
 92       0.021513585804
 93      -0.017372837089
 94      -0.019760911424
 95       0.016222576441
 96       0.018424473343
 97      -0.035621874007
 98       0.028478978992
 99      -0.044846423092
100       0.028079187999
101      -0.058879967754
102      -0.055313101411
103       0.038553475007
104       0.031554074049
105       0.036961569271
106       0.021391187135
107       0.064675711641
108       0.053526389737
109      -0.018960621926
110      -0.034938286121
111      -0.011970738663
112      -0.033279230192
113       0.069805577532
114      -0.007188896665
115      -0.014226507344
116      -0.055234030708
117      -0.017368404141
118      -0.332490119518
119      -0.403442086214
120      -0.192735995274
121       0.072966313987
122      -0.007462089148
123      -0.009327541156
124       0.000253451267
125       0.005627207260
126      -0.045626953723
127      -0.018936345156
128      -0.016410936458
129       0.029929149263
130       0.030382869540
131      -0.014049729455
132      -0.008362988916
133       0.120025797542
134       0.049470579163
135       0.042041289695
136      -0.016550525601
137      -0.041896068811
138       0.043515092863
139      -0.017499674179
140      -0.106319585989
141      -0.032646720799
142      -0.006160023592
143       0.032602000269
144      -0.006273223544
145      -0.026629104735
146       0.015858716348
147       0.040334695704
148      -0.027529041302
149      -0.010949493495
150      -0.000234750998
151      -0.000464561816
152      -0.001803648647
153      -0.000567159530
154      -0.010857352981
155      -0.013174265046
156      -0.006293729940
157       0.002382691094
158       0.016940222021
159      -0.014300577123
160       0.005226487233
161      -0.005627207260
162      -0.001489932890
163       0.017866442861
164       0.020391851560
165      -0.035139663694
166       0.018944780384
167      -0.002611640299
168       0.008362988916
169       0.003919402111
170      -0.029532599633
171      -0.036961889102
172       0.044842297716
173       0.063311350141
174      -0.061692326090
175       0.017499674179
176      -0.003471830347
177      -0.031240679208
178      -0.004753982002
179       0.076722733863
180      -0.036402695009
181       0.003500366730
182      -0.015858716348
183       0.001317115934
184       0.055385825028
185       0.071965372835
 Sym=     1a
 Ene= -5.52529881937867E-01
 Spin= Alpha
 Occup= 2.000000
  1       0.000000000000
  2       0.000000000001
  3      -0.000000000003
  4       0.000000000010
  5      -0.000000000027
  6       0.000000000171
  7      -0.000133747485
  8      -0.000432556390
  9      -0.000282743053
 10       0.000000000000
 11      -0.000000000000
 12      -0.000558427899
 13       0.000365019712
 14       0.000469561583
 15       0.001518622561
 16       0.000992656609
 17      -0.000000000000
 18       0.000000000000
 19       0.001960533296
 20      -0.001281514172
 21      -0.020129449277
 22      -0.065101208329
 23      -0.042553791983
 24       0.000000000000
 25      -0.000000000000
 26      -0.084045298558
 27       0.054936709223
 28       0.033596092347
 29       0.108654049739
 30       0.071022365909
 31       0.000000000000
 32       0.000000000000
 33       0.140271775046
 34      -0.091689480125
 35      -0.020794819669
 36      -0.067253099879
 37      -0.043960388793
 38      -0.000000000000
 39       0.000000000011
 40      -0.086823378603
 41       0.056752617896
 42      -0.005556557654
 43      -0.010996180884
 44      -0.042692375149
 45      -0.013424666594
 46      -0.256993609600
 47      -0.311834946968
 48      -0.148972603088
 49       0.056398295692
 50       0.022936752663
 51      -0.009836031455
 52      -0.017392235849
 53       0.004685905527
 54      -0.035266718872
 55       0.005926866236
 56      -0.003823899992
 57      -0.059219077965
 58       0.021865016613
 59       0.035465999977
 60      -0.006964054069
 61       0.092772269750
 62       0.000547500337
 63      -0.006734041684
 64       0.058136004112
 65       0.027371676427
 66       0.028719875188
 67      -0.014572383397
 68      -0.082178244316
 69      -0.022584354291
 70       0.044640439614
 71       0.050393440115
 72       0.001963953998
 73      -0.025434575496
 74       0.013205919804
 75       0.031176141703
 76       0.055025190501
 77      -0.041219017758
 78       0.006993573615
 79       0.013839971588
 80       0.053733316511
 81       0.016896502347
 82       0.323456329155
 83       0.392480521233
 84       0.187499339612
 85      -0.070983812279
 86      -0.021102044611
 87      -0.008873387177
 88      -0.016429591572
 89      -0.004685905527
 90       0.044387264496
 91      -0.001197151232
 92       0.003300117476
 93       0.058210464728
 94       0.024079118947
 95       0.037680102310
 96       0.006964054069
 97      -0.116764684003
 98       0.015840364014
 99      -0.022026905361
100      -0.052659487853
101       0.007006386117
102       0.008354584877
103       0.014572383397
104       0.103430871731
105      -0.022856525800
106       0.044912611124
107      -0.029231149608
108       0.007796198938
109      -0.019602330556
110      -0.013205919804
111      -0.039238797799
112       0.038975131046
113      -0.025168958303
114      -0.002032766641
115      -0.004022754750
116      -0.015618237823
117      -0.004911171790
118      -0.094016490068
119      -0.114079202860
120      -0.054498949292
121       0.020632302985
122      -0.003694420143
123       0.015769712293
124       0.020308177565
125      -0.022373346768
126      -0.012901694619
127       0.001733482787
128      -0.008307350463
129       0.011792998612
130      -0.025127001849
131      -0.039812318634
132       0.033250606034
133       0.033939065921
134      -0.004758705168
135       0.024779584798
136      -0.008864324534
137      -0.009659923619
138       0.003222807828
139       0.069577370615
140      -0.030063432224
141       0.045450128844
142      -0.059858960838
143       0.002242801683
144       0.066477593553
145       0.064339555232
146      -0.063053047270
147       0.011405230523
148       0.033332467449
149      -0.032586550406
150       0.000595750679
151       0.001178964046
152       0.004577296461
153       0.001439336037
154       0.027553770513
155       0.033433628605
156       0.015972212571
157      -0.006046786396
158       0.005529128195
159       0.014807068015
160       0.021270821843
161       0.022373346768
162       0.003781148995
163       0.008857500255
164      -0.001183332995
165      -0.012801611849
166      -0.027341104182
167      -0.037598216300
168      -0.033250606034
169      -0.009946651669
170      -0.020051568845
171       0.009486721122
172       0.014340840794
173       0.010705366691
174      -0.017142482482
175      -0.069577370615
176       0.008810804811
177       0.045722300354
178      -0.059586789328
179       0.018919488825
180       0.060645348612
181       0.070171800173
182       0.063053047270
183      -0.003342574429
184       0.049382526903
185      -0.016536490952
 Sym=     1a
 Ene= -5.52529881932769E-01
 Spin= Alpha
 Occup= 2.000000
  1      -0.000000000001
  2      -0.000000000001
  3      -0.000000000001
  4       0.000000000011
  5      -0.000000000025
  6       0.000000000202
  7       0.000484488877
  8      -0.000273750832
  9       0.000332856928
 10       0.000000000000
 11      -0.000000000000
 12      -0.000353410805
 13      -0.000429716446
 14      -0.001700947706
 15       0.000961086605
 16      -0.001168596849
 17      -0.000000000000
 18       0.000000000000
 19       0.001240757472
 20       0.001508652045
 21       0.072917226552
 22      -0.041200431748
 23       0.050096100366
 24       0.000000000000
 25      -0.000000000001
 26      -0.053189528672
 27      -0.064673787476
 28      -0.121699000037
 29       0.068763605026
 30      -0.083610493877
 31      -0.000000000000
 32       0.000000000002
 33       0.088773432364
 34       0.107940683452
 35       0.075327473040
 36      -0.042562293986
 37       0.051752004708
 38       0.000000000000
 39       0.000000000013
 40      -0.054947685261
 41      -0.066811550789
 42      -0.002084217735
 43      -0.004124574457
 44      -0.016013548445
 45      -0.005035479200
 46      -0.096396127288
 47      -0.116966650231
 48      -0.055878361246
 49       0.021154522727
 50      -0.005142528544
 51       0.018126608022
 52      -0.012469149019
 53       0.018973656299
 54      -0.013228247518
 55      -0.008754049501
 56       0.017269151004
 57       0.006678484549
 58      -0.025985752356
 59       0.029085862901
 60      -0.028198086601
 61       0.034798092802
 62       0.014240941724
 63      -0.039290808706
 64      -0.014496694082
 65      -0.041091312306
 66      -0.035632333603
 67      -0.059004901219
 68      -0.030824363707
 69       0.046949265359
 70       0.042357823646
 71      -0.041619042664
 72       0.066761712150
 73      -0.044177417535
 74       0.053471966417
 75       0.011693906807
 76      -0.004432039884
 77       0.060334484945
 78      -0.003121250911
 79      -0.006176816876
 80      -0.023981325174
 81      -0.007540955036
 82      -0.144359438010
 83      -0.175165125101
 84      -0.083681461756
 85       0.031680266411
 86      -0.001503547149
 87       0.014639510608
 88      -0.015956246433
 89      -0.018973656299
 90      -0.019810156846
 91       0.017052099559
 92      -0.008536998056
 93      -0.003024866837
 94      -0.034006151110
 95       0.021065464147
 96       0.028198086601
 97       0.052112395916
 98      -0.041156160517
 99       0.016106293534
100      -0.005341522849
101       0.032680227503
102       0.038139206206
103       0.059004901219
104      -0.046161479225
105       0.047935183026
106       0.041371905979
107      -0.035039562406
108       0.045634898872
109      -0.065304230813
110      -0.053471966417
111       0.017512382126
112       0.053707941348
113       0.002194503712
114      -0.002718818147
115      -0.005380420338
116      -0.020889336835
117      -0.006568675753
118      -0.125746718415
119      -0.152580527787
120      -0.072892149292
121       0.027595631557
122      -0.021996529474
123      -0.014371374826
124       0.011390213371
125       0.001848737813
126      -0.017255970534
127       0.013602034710
128       0.014431721391
129       0.051619712193
130       0.023921348246
131      -0.018555330396
132      -0.002747539339
133       0.045393379439
134      -0.016906075970
135      -0.019346862273
136      -0.056899017357
137       0.052300503066
138      -0.051768596049
139      -0.005749265941
140      -0.040209733276
141      -0.032478262314
142      -0.023776439352
143      -0.072092011628
144      -0.023447288377
145       0.012637702444
146       0.005210152810
147       0.015254455144
148       0.060350720524
149       0.065797692046
150       0.007924286793
151       0.015681811672
152       0.060884210454
153       0.019145109991
154       0.366502283711
155       0.444712303124
156       0.212451972064
157      -0.080430420695
158       0.015350453781
159      -0.010884277412
160       0.007903115957
161      -0.001848737813
162       0.050294374899
163      -0.012204114350
164      -0.011374427668
165      -0.047966094481
166       0.031941747000
167      -0.026575729149
168       0.002747539339
169      -0.132303868159
170       0.038491026271
171       0.036050239967
172       0.037060800427
173      -0.021471036744
174       0.022002943761
175       0.005749265941
176       0.117195576209
177      -0.033464179981
178      -0.024762357019
179      -0.004566593442
180      -0.002320475100
181      -0.008489110833
182      -0.005210152810
183      -0.044460744082
184       0.002210739291
185       0.007657710813
 Sym=     1a
 Ene= 4.73345299992787E-02
 Spin= Alpha
 Occup= 0.000000
  1       0.067685729509
  2       0.074208490334
  3      -0.118277491484
  4      -0.036716754415
  5      -0.944222313060
  6       6.808805904282
  7      -0.000000000000
  8       0.000000000000
  9      -0.000000000000
 10      -0.000000000000
 11       0.000776753672
 12      -0.000000000000
 13       0.000000000000
 14       0.000000000000
 15      -0.000000000000
 16       0.000000000000
 17       0.000000000000
 18      -0.005782097151
 19       0.000000000000
 20       0.000000000000
 21       0.000000000000
 22      -0.000000000000
 23      -0.000000000000
 24      -0.000000000002
 25       0.023026475480
 26      -0.000000000001
 27      -0.000000000001
 28      -0.000000000001
 29      -0.000000000003
 30       0.000000000003
 31       0.000000000009