[Molden Format]
[Title]
 Molden file created by orca_2mkl for BaseName=./methane

[Atoms] AU
C    1   6          0.0000000000         0.0000000000         0.0000000000 
H    2   1          1.1888607259         1.1888607259         1.1888607259 
H    3   1         -1.1888607259        -1.1888607259         1.1888607259 
H    4   1          1.1888607259        -1.1888607259        -1.1888607259 
H    5   1         -1.1888607259         1.1888607259        -1.1888607259 
[GTO]
  1 0
s  11 1.0 
   312100.0000000000         0.0624123834
    46740.0000000000         0.1168617815
    10640.0000000000         0.2025229998
     3013.0000000000         0.3318838459
      982.8000000000         0.5196895195
      354.8000000000         0.7796582370
      138.4000000000         1.1099778348
       57.3500000000         1.4602361505
       24.9200000000         1.6798835992
       11.2300000000         1.5592862930
        5.2010000000         0.9802029621
s   1 1.0 
        2.4260000000         1.3854095902
s   1 1.0 
        0.9673000000         0.6951539311
s   1 1.0 
        0.4456000000         0.3887039723
s   1 1.0 
        0.1971000000         0.2108264328
s   1 1.0 
        0.0863500000         0.1135290095
g   3 1.0 
       60.0434382795      3830.8001591095
       22.1675054852       231.2768370473
        4.8023959699       491.6481952994
g   1 1.0 
        1.4833907695        19.4725250514
g   1 1.0 
        0.4617895271         0.7864854014
g   1 1.0 
        0.3024922807         0.2457161843
g   1 1.0 
        0.0902841222         0.0088389513

  2 0
s   8 1.0 
    13940.8000000000         0.3056531351
     3471.4300000000         0.1947272791
     1903.1800000000         0.4070940042
      623.2860000000         0.7103835792
      290.3600000000         0.6711450512
      126.5850000000         1.5689744399
       44.6955000000         2.7553032183
       16.0038000000         4.3513600753
s   1 1.0 
        6.0805600000         2.7597375063
s   1 1.0 
        2.4762200000         1.4068636624
s   1 1.0 
        1.0757100000         0.7528032696
s   1 1.0 
        0.4896820000         0.4172013427
s   1 1.0 
        0.2297860000         0.2365390053
s   1 1.0 
        0.1099655000         0.1360982159
s   1 1.0 
        0.0523230000         0.0779703655
g   3 1.0 
       10.1787046997         2.6167059776
        2.3952640718        -8.0195942307
        1.0486496863         7.9991712684
g   1 1.0 
        0.7201895699         2.6696124741
g   1 1.0 
        0.3328151500         0.3195419919
g   1 1.0 
        0.1216647326         0.0200757782

  3 0
s   8 1.0 
    13940.8000000000         0.3056531351
     3471.4300000000         0.1947272791
     1903.1800000000         0.4070940042
      623.2860000000         0.7103835792
      290.3600000000         0.6711450512
      126.5850000000         1.5689744399
       44.6955000000         2.7553032183
       16.0038000000         4.3513600753
s   1 1.0 
        6.0805600000         2.7597375063
s   1 1.0 
        2.4762200000         1.4068636624
s   1 1.0 
        1.0757100000         0.7528032696
s   1 1.0 
        0.4896820000         0.4172013427
s   1 1.0 
        0.2297860000         0.2365390053
s   1 1.0 
        0.1099655000         0.1360982159
s   1 1.0 
        0.0523230000         0.0779703655
g   3 1.0 
       10.1787046997         2.6167059776
        2.3952640718        -8.0195942307
        1.0486496863         7.9991712684
g   1 1.0 
        0.7201895699         2.6696124741
g   1 1.0 
        0.3328151500         0.3195419919
g   1 1.0 
        0.1216647326         0.0200757782

  4 0
s   8 1.0 
    13940.8000000000         0.3056531351
     3471.4300000000         0.1947272791
     1903.1800000000         0.4070940042
      623.2860000000         0.7103835792
      290.3600000000         0.6711450512
      126.5850000000         1.5689744399
       44.6955000000         2.7553032183
       16.0038000000         4.3513600753
s   1 1.0 
        6.0805600000         2.7597375063
s   1 1.0 
        2.4762200000         1.4068636624
s   1 1.0 
        1.0757100000         0.7528032696
s   1 1.0 
        0.4896820000         0.4172013427
s   1 1.0 
        0.2297860000         0.2365390053
s   1 1.0 
        0.1099655000         0.1360982159
s   1 1.0 
        0.0523230000         0.0779703655
g   3 1.0 
       10.1787046997         2.6167059776
        2.3952640718        -8.0195942307
        1.0486496863         7.9991712684
g   1 1.0 
        0.7201895699         2.6696124741
g   1 1.0 
        0.3328151500         0.3195419919
g   1 1.0 
        0.1216647326         0.0200757782

  5 0
s   8 1.0 
    13940.8000000000         0.3056531351
     3471.4300000000         0.1947272791
     1903.1800000000         0.4070940042
      623.2860000000         0.7103835792
      290.3600000000         0.6711450512
      126.5850000000         1.5689744399
       44.6955000000         2.7553032183
       16.0038000000         4.3513600753
s   1 1.0 
        6.0805600000         2.7597375063
s   1 1.0 
        2.4762200000         1.4068636624
s   1 1.0 
        1.0757100000         0.7528032696
s   1 1.0 
        0.4896820000         0.4172013427
s   1 1.0 
        0.2297860000         0.2365390053
s   1 1.0 
        0.1099655000         0.1360982159
s   1 1.0 
        0.0523230000         0.0779703655
g   3 1.0 
       10.1787046997         2.6167059776
        2.3952640718        -8.0195942307
        1.0486496863         7.9991712684
g   1 1.0 
        0.7201895699         2.6696124741
g   1 1.0 
        0.3328151500         0.3195419919
g   1 1.0 
        0.1216647326         0.0200757782

[5D]
[9G]
[MO]
 Sym=     1a
 Ene= -1.18792855212808E+01
 Spin= Alpha
 Occup= 2.000000
  1      -0.857361235367
  2      -0.176755542998
  3      -0.013684830682
  4      -0.001733001907
  5       0.001971872757
  6      -0.001760189683
  7       0.000003552732
  8       0.000000000000
  9       0.000000000000
 10       0.000000000000
 11      -0.000000000000
 12       0.000000000000
 13      -0.000000000000
 14      -0.000003002606
 15       0.000000000000
 16       0.000048385799
 17       0.000000000000
 18       0.000000000000
 19      -0.000000000000
 20      -0.000000000000
 21      -0.000000000000
 22       0.000000000000
 23      -0.000040893464
 24       0.000000000000
 25       0.000100883855
 26      -0.000000000000
 27       0.000000000000
 28       0.000000000000
 29      -0.000000000000
 30      -0.000000000000
 31       0.000000000000
 32      -0.000085262419
 33      -0.000000000000
 34      -0.000114111101
 35      -0.000000000000
 36      -0.000000000000
 37       0.000000000000
 38       0.000000000000
 39       0.000000000000
 40      -0.000000000000
 41       0.000096441482
 42      -0.000000000000
 43       0.000062508562
 44       0.000000000000
 45       0.000000000000
 46      -0.000000000000
 47      -0.000000000000
 48      -0.000000000000
 49       0.000000000000
 50      -0.000052829377
 51      -0.000000000000
 52      -0.000003650415
 53      -0.000051640662
 54       0.000133519427
 55      -0.000421360320
 56       0.000280854563
 57      -0.000573521179
 58       0.000528570240
 59       0.000012698186
 60      -0.000037235565
 61      -0.000012053240
 62      -0.000012053240
 63       0.000000000000
 64       0.000034091710
 65       0.000031889875
 66      -0.000031889875
 67       0.000031469797
 68      -0.000000000000
 69       0.000089411468
 70       0.000019318713
 71       0.000019318713
 72      -0.000000000000
 73      -0.000054641571
 74      -0.000051112509
 75       0.000051112509
 76      -0.000075566483
 77      -0.000000000000
 78      -0.000021771939
 79      -0.000005263653
 80      -0.000005263653
 81       0.000000000000
 82       0.000014887860
 83       0.000013926318
 84      -0.000013926318
 85       0.000018400647
 86       0.000000000000
 87      -0.000034870681
 88      -0.000000202878
 89      -0.000000202878
 90      -0.000000000000
 91       0.000000573827
 92       0.000000536766
 93      -0.000000536766
 94       0.000029471105
 95       0.000000000000
 96      -0.000003650415
 97      -0.000051640662
 98       0.000133519428
 99      -0.000421360320
100       0.000280854564
101      -0.000573521180
102       0.000528570242
103       0.000012698185
104      -0.000037235565
105       0.000012053240
106       0.000012053240
107       0.000000000000
108       0.000034091710
109      -0.000031889875
110       0.000031889875
111       0.000031469797
112       0.000000000000
113       0.000089411468
114      -0.000019318713
115      -0.000019318713
116       0.000000000000
117      -0.000054641570
118       0.000051112509
119      -0.000051112509
120      -0.000075566483
121      -0.000000000000
122      -0.000021771939
123       0.000005263653
124       0.000005263653
125       0.000000000000
126       0.000014887860
127      -0.000013926318
128       0.000013926318
129       0.000018400647
130       0.000000000000
131      -0.000034870681
132       0.000000202878
133       0.000000202878
134      -0.000000000000
135       0.000000573827
136      -0.000000536766
137       0.000000536766
138       0.000029471105
139      -0.000000000000
140      -0.000003650415
141      -0.000051640662
142       0.000133519428
143      -0.000421360320
144       0.000280854564
145      -0.000573521180
146       0.000528570241
147       0.000012698185
148      -0.000037235566
149       0.000012053240
150      -0.000012053240
151      -0.000000000000
152      -0.000034091710
153      -0.000031889875
154      -0.000031889875
155       0.000031469797
156      -0.000000000000
157       0.000089411468
158      -0.000019318713
159       0.000019318713
160       0.000000000000
161       0.000054641570
162       0.000051112509
163       0.000051112509
164      -0.000075566483
165       0.000000000000
166      -0.000021771939
167       0.000005263653
168      -0.000005263653
169      -0.000000000000
170      -0.000014887860
171      -0.000013926318
172      -0.000013926318
173       0.000018400647
174      -0.000000000000
175      -0.000034870681
176       0.000000202878
177      -0.000000202878
178       0.000000000000
179      -0.000000573827
180      -0.000000536766
181      -0.000000536766
182       0.000029471105
183       0.000000000000
184      -0.000003650415
185      -0.000051640662
186       0.000133519428
187      -0.000421360320
188       0.000280854564
189      -0.000573521180
190       0.000528570241
191       0.000012698185
192      -0.000037235565
193      -0.000012053240
194       0.000012053240
195       0.000000000000
196      -0.000034091710
197       0.000031889875
198       0.000031889875
199       0.000031469797
200       0.000000000000
201       0.000089411468
202       0.000019318713
203      -0.000019318713
204      -0.000000000000
205       0.000054641571
206      -0.000051112509
207      -0.000051112509
208      -0.000075566483
209      -0.000000000000
210      -0.000021771939
211      -0.000005263653
212       0.000005263653
213       0.000000000000
214      -0.000014887860
215       0.000013926318
216       0.000013926318
217       0.000018400647
218       0.000000000000
219      -0.000034870681
220      -0.000000202878
221       0.000000202878
222      -0.000000000000
223      -0.000000573827
224       0.000000536766
225       0.000000536766
226       0.000029471105
227      -0.000000000000
 Sym=     1a
 Ene= -1.17755881364188E+00
 Spin= Alpha
 Occup= 2.000000
  1      -0.209272035360
  2      -0.186113715256
  3       0.200610422268
  4       0.434368865821
  5       0.288278926744
  6      -0.030806729865
  7       0.000248066637
  8      -0.000000000000
  9       0.000000000000
 10       0.000000000000
 11      -0.000000000000
 12       0.000000000000
 13       0.000000000000
 14      -0.000209654574
 15       0.000000000000
 16      -0.002039498627
 17       0.000000000000
 18       0.000000000000
 19      -0.000000000000
 20      -0.000000000000
 21      -0.000000000000
 22       0.000000000000
 23       0.001723690942
 24       0.000000000000
 25      -0.006131972819
 26      -0.000000000000
 27       0.000000000000
 28      -0.000000000000
 29      -0.000000000000
 30       0.000000000000
 31       0.000000000000
 32       0.005182462918
 33       0.000000000000
 34       0.010087074347
 35       0.000000000000
 36      -0.000000000000
 37       0.000000000000
 38       0.000000000001
 39      -0.000000000000
 40      -0.000000000001
 41      -0.008525133802
 42       0.000000000000
 43      -0.002191912591
 44      -0.000000000000
 45       0.000000000000
 46       0.000000000000
 47      -0.000000000000
 48       0.000000000000
 49       0.000000000001
 50       0.001852504252
 51      -0.000000000000
 52       0.003045911624
 53       0.007728957202
 54       0.014239354915
 55       0.052427679028
 56       0.042750229504
 57       0.016283060023
 58       0.028996679945
 59      -0.001784480496
 60       0.001081860315
 61      -0.000369824349
 62      -0.000369824349
 63      -0.000000000000
 64       0.001046021221
 65       0.000978463257
 66      -0.000978463257
 67      -0.000914338848
 68      -0.000000000000
 69      -0.003987065666
 70       0.000031592432
 71       0.000031592432
 72       0.000000000000
 73      -0.000089356892
 74      -0.000083585719
 75       0.000083585719
 76       0.003369685512
 77       0.000000000000
 78       0.001465410003
 79       0.000849089353
 80       0.000849089353
 81       0.000000000000
 82      -0.002401587357
 83      -0.002246479269
 84       0.002246479269
 85      -0.001238497499
 86      -0.000000000000
 87       0.000869231967
 88       0.000083023769
 89       0.000083023769
 90      -0.000000000000
 91      -0.000234826681
 92      -0.000219660247
 93       0.000219660246
 94      -0.000734635095
 95      -0.000000000000
 96       0.003045911624
 97       0.007728957202
 98       0.014239354916
 99       0.052427679025
100       0.042750229513
101       0.016283060012
102       0.028996679955
103      -0.001784480500
104       0.001081860315
105       0.000369824349
106       0.000369824349
107       0.000000000000
108       0.001046021220
109      -0.000978463257
110       0.000978463257
111      -0.000914338848
112       0.000000000000
113      -0.003987065666
114      -0.000031592432
115      -0.000031592432
116      -0.000000000000
117      -0.000089356892
118       0.000083585719
119      -0.000083585719
120       0.003369685512
121      -0.000000000000
122       0.001465410003
123      -0.000849089353
124      -0.000849089353
125      -0.000000000000
126      -0.002401587357
127       0.002246479269
128      -0.002246479269
129      -0.001238497499
130       0.000000000000
131       0.000869231967
132      -0.000083023769
133      -0.000083023769
134       0.000000000000
135      -0.000234826681
136       0.000219660246
137      -0.000219660247
138      -0.000734635095
139       0.000000000000
140       0.003045911624
141       0.007728957202
142       0.014239354916
143       0.052427679026
144       0.042750229509
145       0.016283060016
146       0.028996679951
147      -0.001784480498
148       0.001081860315
149       0.000369824349
150      -0.000369824349
151      -0.000000000000
152      -0.001046021221
153      -0.000978463257
154      -0.000978463257
155      -0.000914338848
156      -0.000000000000
157      -0.003987065666
158      -0.000031592432
159       0.000031592432
160       0.000000000000
161       0.000089356892
162       0.000083585719
163       0.000083585719
164       0.003369685512
165       0.000000000000
166       0.001465410003
167      -0.000849089353
168       0.000849089353
169      -0.000000000000
170       0.002401587357
171       0.002246479269
172       0.002246479269
173      -0.001238497499
174       0.000000000000
175       0.000869231967
176      -0.000083023769
177       0.000083023769
178       0.000000000000
179       0.000234826681
180       0.000219660246
181       0.000219660246
182      -0.000734635095
183       0.000000000000
184       0.003045911624
185       0.007728957202
186       0.014239354917
187       0.052427679025
188       0.042750229514
189       0.016283060016
190       0.028996679953
191      -0.001784480498
192       0.001081860315
193      -0.000369824349
194       0.000369824349
195       0.000000000000
196      -0.001046021221
197       0.000978463257
198       0.000978463257
199      -0.000914338848
200       0.000000000000
201      -0.003987065666
202       0.000031592432
203      -0.000031592432
204      -0.000000000000
205       0.000089356892
206      -0.000083585719
207      -0.000083585719
208       0.003369685512
209       0.000000000000
210       0.001465410003
211       0.000849089353
212      -0.000849089353
213       0.000000000000
214       0.002401587357
215      -0.002246479269
216      -0.002246479269
217      -0.001238497499
218      -0.000000000000
219       0.000869231967
220       0.000083023769
221      -0.000083023770
222      -0.000000000000
223       0.000234826682
224      -0.000219660247
225      -0.000219660247
226      -0.000734635095
227      -0.000000000000
 Sym=     1a
 Ene= -5.57742850720093E-01
 Spin= Alpha
 Occup= 2.000000
  1       0.000000000001
  2       0.000000000001
  3      -0.000000000003
  4       0.000000000004
  5      -0.000000000011
  6       0.000000000029
  7      -0.000000000000
  8      -0.000123389670
  9       0.000104717695
 10      -0.000000000000
 11      -0.000340109408
 12       0.000326458382
 13       0.000277056978
 14       0.000000000000
 15      -0.000000000000
 16       0.000000000000
 17       0.000410834080
 18      -0.000348664518
 19       0.000000000000
 20       0.001132416761
 21      -0.001086964806
 22      -0.000922479606
 23      -0.000000000000
 24      -0.000000000000
 25      -0.000000000000
 26      -0.019039304594
 27       0.016158177404
 28       0.000000000000
 29      -0.052479648825
 30       0.050373265092
 31       0.042750519051
 32       0.000000000000
 33      -0.000000000000
 34       0.000000000000
 35       0.051525391065
 36      -0.043728299215
 37      -0.000000000000
 38       0.142023802570
 39      -0.136323370962
 40      -0.115694204980
 41      -0.000000000000
 42       0.000000000000
 43      -0.000000000000
 44      -0.036993603790
 45       0.031395538300
 46      -0.000000000000
 47      -0.101968606266
 48       0.097875875729
 49       0.083064786619
 50       0.000000000000
 51      -0.000000000000
 52      -0.002453505222
 53      -0.003581369554
 54      -0.022183840128
 55       0.006096867496
 56      -0.143355050207
 57      -0.093092146240
 58      -0.030447821457
 59      -0.017329969390
 60       0.007356777815
 61      -0.004544166246
 62       0.004246761559
 63      -0.018497911456
 64      -0.009978020342
 65       0.012261432822
 66       0.007490922846
 67       0.009669383978
 68      -0.001239647671
 69      -0.008799696722
 70       0.011300139709
 71      -0.004939151360
 72       0.033837880423
 73       0.011746163464
 74      -0.030240115193
 75      -0.007690266929
 76      -0.021624680725
 77       0.001780050640
 78      -0.020226987215
 79       0.002574892758
 80       0.038810731778
 81       0.017379585175
 82       0.021305682769
 83       0.002030934841
 84      -0.036061463202
 85       0.002168407213
 86      -0.045927132369
 87       0.010149949505
 88       0.013186032181
 89      -0.007985227586
 90      -0.034102712288
 91       0.048839483761
 92      -0.033466357405
 93      -0.043414783654
 94       0.020710960144
 95      -0.007377687970
 96      -0.003355535064
 97      -0.004898058066
 98      -0.030339716672
 99       0.008338377378
100      -0.196059454218
101      -0.127317424245
102      -0.041641945445
103      -0.023701320873
104       0.006053324863
105      -0.004594490723
106       0.004196437083
107       0.018497911456
108      -0.009463179983
109       0.008697935667
110       0.011054420001
111       0.008481798548
112       0.001239647671
113      -0.004702833921
114       0.004698075819
115      -0.011541215249
116      -0.033837880423
117       0.008075528773
118      -0.007464565074
119      -0.030465817048
120      -0.020899563732
121      -0.001780050640
122      -0.023897580739
123      -0.033277603299
124       0.002958235720
125      -0.017379585175
126       0.025452246332
127      -0.040067516227
128       0.006036987867
129       0.007421430882
130       0.045927132369
131       0.006492121458
132       0.011755746676
133      -0.009415513091
134       0.034102712288
135       0.051406886762
136      -0.051682528325
137      -0.025198612734
138       0.019582016711
139       0.007377687970
140      -0.002605333401
141      -0.003802992626
142      -0.023556623810
143       0.006474154297
144      -0.152226170819
145      -0.098852892574
146      -0.032331994847
147      -0.018402389328
148      -0.014666911482
149      -0.002458661175
150       0.001739070555
151       0.001514166279
152      -0.012865391338
153       0.009962950213
154       0.008346100318
155      -0.016329697998
156      -0.000101472627
157       0.031776064446
158       0.002493116224
159      -0.001163831973
160      -0.002769835738
161       0.032332123032
162      -0.011561540702
163      -0.008456709224
164       0.025691340058
165       0.000145707863
166      -0.000358741276
167       0.050241101964
168      -0.053207224918
169      -0.001422624405
170      -0.001949420469
171      -0.004813682605
172      -0.002028077400
173       0.027292037344
174      -0.003759414131
175      -0.030664083033
176       0.024613040141
177      -0.022880044419
178       0.002791513933
179       0.034440760433
180      -0.044540237077
181      -0.038247050218
182      -0.027042394082
183      -0.000603908490
184       0.008414373687
185       0.012282420246
186       0.076080180609
187      -0.020909399173
188       0.491640675242
189       0.319262463066
190       0.104421761713
191       0.059433679590
192       0.001256808804
193      -0.002508985652
194       0.001789395032
195      -0.001514166279
196      -0.006575808987
197       0.006399453059
198       0.004782603163
199      -0.001821484528
200       0.000101472627
201      -0.018273533803
202      -0.004108947666
203       0.005438231917
204       0.002769835738
205      -0.012510430795
206       0.011214009416
207       0.014318840895
208       0.016832904399
209      -0.000145707863
210       0.044483309230
211       0.014388605906
212      -0.017354728861
213       0.001422624405
214       0.048707349570
215      -0.046912133673
216      -0.044126528468
217      -0.036881875440
218       0.003759414131
219       0.014022012070
220       0.023182754636
221      -0.021449758914
222      -0.002791513933
223       0.065805610090
224      -0.062756407998
225      -0.056463221139
226      -0.013250582774
227       0.000603908490
 Sym=     1a
 Ene= -5.57742850710599E-01
 Spin= Alpha
 Occup= 2.000000
  1      -0.000000000000
  2       0.000000000000
  3      -0.000000000001
  4       0.000000000003
  5      -0.000000000003
  6       0.000000000006
  7       0.000000000000
  8      -0.000106374566
  9      -0.000167325468
 10       0.000000000000
 11      -0.000103411772
 12       0.000281440647
 13      -0.000442701577
 14      -0.000000000000
 15      -0.000000000000
 16      -0.000000000000
 17       0.000354181144
 18       0.000557121202
 19      -0.000000000000
 20       0.000344316313
 21      -0.000937075225
 22       0.001474004151
 23       0.000000000000
 24       0.000000000000
 25      -0.000000000000
 26      -0.016413835880
 27      -0.025818696481
 28      -0.000000000000
 29      -0.015956670060
 30       0.043426927798
 31      -0.068309850065
 32       0.000000000000
 33      -0.000000000000
 34       0.000000000000
 35       0.044420178798
 36       0.069872217616
 37       0.000000000000
 38       0.043182967048
 39      -0.117524746292
 40       0.184864511364
 41      -0.000000000000
 42       0.000000000000
 43      -0.000000000000
 44      -0.031892286066
 45      -0.050166046267
 46      -0.000000000000
 47      -0.031004006842
 48       0.084379057671
 49      -0.132726882681
 50       0.000000000000
 51       0.000000000000
 52       0.005727996098
 53       0.008361127849
 54       0.051790780226
 55      -0.014233853240
 56       0.334679201460
 57       0.217334549678
 58       0.071084015426
 59       0.040458846851
 60       0.011591927465
 61      -0.001366435227
 62      -0.003715394355
 63       0.004942691118
 64      -0.006728943475
 65       0.006749208532
 66      -0.012027090244
 67       0.011463485522
 68       0.000331237093
 69      -0.032079350627
 70      -0.002932780666
 71       0.001406400900
 72      -0.009041571501
 73       0.029916136414
 74       0.003259251515
 75       0.006875847120
 76      -0.011779344411
 77      -0.000475634203
 78       0.020194263202
 79       0.050844940613
 80       0.041162628308
 81      -0.004643871280
 82      -0.023282384778
 83      -0.018414401398
 84       0.027507448834
 85      -0.037042378207
 86       0.012271851591
 87       0.029338882392
 88       0.025023704307
 89       0.030680720985
 90       0.009112335273
 91      -0.003576752348
 92      -0.047554920048
 93       0.068097765033
 94       0.014399844704
 95       0.001971337937
 96      -0.007494260537
 97      -0.010939335427
 98      -0.067760800548
 99       0.018622953734
100      -0.437879687476
101      -0.284351055162
102      -0.093003229852
103      -0.052934591761
104      -0.007514526055
105      -0.001381736628
106      -0.003730695755
107      -0.004942691118
108       0.000817760437
109       0.005665711242
110      -0.010943592954
111      -0.005944538219
112      -0.000331237093
113       0.027973845891
114      -0.004940167451
115      -0.000600985885
116       0.009041571501
117      -0.023889263149
118       0.010184258807
119      -0.000049160172
120      -0.001150340251
121       0.000475634203
122      -0.033610533423
123       0.039943830269
124       0.030261517964
125       0.004643871280
126       0.037499340342
127      -0.031214622359
128       0.040307669796
129       0.039958210847
130      -0.012271851591
131      -0.024278787036
132       0.024588819676
133       0.030245836354
134      -0.009112335273
135       0.034057105739
136      -0.053093627490
137       0.073636472475
138      -0.002148586374
139      -0.001971337937
140       0.002355379696
141       0.003438136335
142       0.021296619392
143      -0.005853029542
144       0.137621708660
145       0.089369017322
146       0.029230093614
147       0.016636870492
148       0.000088729337
149      -0.004698804730
150      -0.005849197970
151       0.022195157628
152      -0.002115294911
153       0.010421889028
154      -0.013278442441
155      -0.000821156917
156      -0.001487420506
157      -0.004633940204
158       0.011139713657
159       0.008345384064
160      -0.040601182843
161      -0.002977588161
162      -0.026586716309
163       0.018924950735
164       0.005281343394
165       0.002135835760
166       0.012699092509
167      -0.025319552377
168      -0.018158877346
169      -0.020853306668
170       0.013876289559
171      -0.007477580047
172       0.033354755432
173      -0.010031636178
174      -0.055106757589
175       0.003440073846
176       0.006764810118
177       0.018638027673
178       0.040918946714
179       0.019430562093
180      -0.029860279645
181       0.062387378888
182      -0.004283024773
183      -0.008852293532
184      -0.000589115257
185      -0.000859928757
186      -0.005326599070
187       0.001463929048
188      -0.034421222641
189      -0.022352511843
190      -0.007310879189
191      -0.004161125584
192      -0.004166130748
193      -0.004714106131
194      -0.005833896570
195      -0.022195157628
196      -0.003795888126
197       0.009338391738
198      -0.014361939730
199      -0.004697790387
200       0.001487420506
201       0.008739444940
202       0.009132326872
203       0.010352770850
204       0.040601182843
205       0.009004461426
206      -0.019661709017
207       0.025849958027
208       0.007648341269
209      -0.002135835760
210       0.000717177712
211      -0.036220662721
212      -0.007257767002
213       0.020853306668
214       0.000340666004
215      -0.020277801009
216       0.020554534470
217       0.007115803537
218       0.055106757589
219      -0.008500169201
220       0.006329925487
221       0.019072912304
222      -0.040918946714
223       0.011049791297
224      -0.035398987087
225       0.056848671446
226      -0.007968233556
227       0.008852293532
 Sym=     1a
 Ene= -5.57742850707766E-01
 Spin= Alpha
 Occup= 2.000000
  1      -0.000000000000
  2      -0.000000000000
  3       0.000000000000
  4      -0.000000000001
  5       0.000000000001
  6       0.000000000029
  7       0.000000000000
  8       0.000118783620
  9      -0.000041067037
 10      -0.000000000000
 11      -0.000445906339
 12      -0.000314271919
 13      -0.000108653167
 14      -0.000000000000
 15       0.000000000000
 16      -0.000000000000
 17      -0.000395497904
 18       0.000136735406
 19       0.000000000000
 20       0.001484674642
 21       0.001046389097
 22       0.000361767879
 23       0.000000000000
 24      -0.000000000000
 25      -0.000000000000
 26       0.018328580927
 27      -0.006336736346
 28      -0.000000000000
 29      -0.068804354551
 30      -0.048492867018
 31      -0.016765428494
 32       0.000000000000
 33      -0.000000000000
 34       0.000000000000
 35      -0.049601985081
 36       0.017148883738
 37       0.000000000000
 38       0.186202771095
 39       0.131234517060
 40       0.045371681634
 41      -0.000000000000
 42       0.000000000000
 43       0.000000000000
 44       0.035612658988
 45      -0.012312357320
 46      -0.000000000000
 47      -0.133687710619
 48      -0.094222239209
 49      -0.032575435521
 50      -0.000000000000