[Molden Format]
[Title]
 Molden file created by orca_2mkl for BaseName=./N4

[Atoms] AU
N    1   7          0.9826575896         1.0015548510         0.9637603283 
N    2   7         -0.9826575896        -0.9826575896         0.9826575896 
N    3   7         -0.9826575896         0.9826575896        -0.9826575896 
N    4   7          0.9826575896        -0.9826575896        -0.9826575896 
[GTO]
  1 0
s   8 1.0 
    90726.8892100000         0.2644615843
    13590.5288010000         0.4949373694
     3092.9883781000         0.8551699161
      875.9987636200         1.3898736510
      285.7446998200         2.1216984479
      103.1191341700         2.9797034650
       40.1285567770         3.6227997909
       16.5280957040         3.4518402365
s   2 1.0 
       69.3909609830         1.6219974198
       20.4282005960         6.3380762249
s   1 1.0 
        7.1292587972         3.1095201639
s   1 1.0 
        3.1324304893         1.6781128930
s   1 1.0 
        0.9875577872         0.7060443478
s   1 1.0 
        0.3876572131         0.3501434400
s   1 1.0 
        0.1490988307         0.1710077411
p   5 1.0 
      150.0574267000        -1.8341596231
       35.4915994830        -2.4061666955
       11.2478642230        -2.6529700970
        4.0900305195        -2.4826646205
        1.6220573146        -1.8181284959
p   1 1.0 
        0.6644226153         0.8550580417
p   1 1.0 
        0.2709977007         0.2787064987
p   1 1.0 
        0.1068874998         0.0871161625
d   1 1.0 
        2.8370000000        17.6796605055
d   1 1.0 
        0.9680000000         2.6930967689
d   1 1.0 
        0.3350000000         0.4205314648
f   1 1.0 
        2.0270000000        27.9525230183
f   1 1.0 
        0.6850000000         2.4339063574
g   1 1.0 
        1.4270000000        17.5039221697

  2 0
s   8 1.0 
    90726.8892100000         0.2644615843
    13590.5288010000         0.4949373694
     3092.9883781000         0.8551699161
      875.9987636200         1.3898736510
      285.7446998200         2.1216984479
      103.1191341700         2.9797034650
       40.1285567770         3.6227997909
       16.5280957040         3.4518402365
s   2 1.0 
       69.3909609830         1.6219974198
       20.4282005960         6.3380762249
s   1 1.0 
        7.1292587972         3.1095201639
s   1 1.0 
        3.1324304893         1.6781128930
s   1 1.0 
        0.9875577872         0.7060443478
s   1 1.0 
        0.3876572131         0.3501434400
s   1 1.0 
        0.1490988307         0.1710077411
p   5 1.0 
      150.0574267000        -1.8341596231
       35.4915994830        -2.4061666955
       11.2478642230        -2.6529700970
        4.0900305195        -2.4826646205
        1.6220573146        -1.8181284959
p   1 1.0 
        0.6644226153         0.8550580417
p   1 1.0 
        0.2709977007         0.2787064987
p   1 1.0 
        0.1068874998         0.0871161625
d   1 1.0 
        2.8370000000        17.6796605055
d   1 1.0 
        0.9680000000         2.6930967689
d   1 1.0 
        0.3350000000         0.4205314648
f   1 1.0 
        2.0270000000        27.9525230183
f   1 1.0 
        0.6850000000         2.4339063574
g   1 1.0 
        1.4270000000        17.5039221697

  3 0
s   8 1.0 
    90726.8892100000         0.2644615843
    13590.5288010000         0.4949373694
     3092.9883781000         0.8551699161
      875.9987636200         1.3898736510
      285.7446998200         2.1216984479
      103.1191341700         2.9797034650
       40.1285567770         3.6227997909
       16.5280957040         3.4518402365
s   2 1.0 
       69.3909609830         1.6219974198
       20.4282005960         6.3380762249
s   1 1.0 
        7.1292587972         3.1095201639
s   1 1.0 
        3.1324304893         1.6781128930
s   1 1.0 
        0.9875577872         0.7060443478
s   1 1.0 
        0.3876572131         0.3501434400
s   1 1.0 
        0.1490988307         0.1710077411
p   5 1.0 
      150.0574267000        -1.8341596231
       35.4915994830        -2.4061666955
       11.2478642230        -2.6529700970
        4.0900305195        -2.4826646205
        1.6220573146        -1.8181284959
p   1 1.0 
        0.6644226153         0.8550580417
p   1 1.0 
        0.2709977007         0.2787064987
p   1 1.0 
        0.1068874998         0.0871161625
d   1 1.0 
        2.8370000000        17.6796605055
d   1 1.0 
        0.9680000000         2.6930967689
d   1 1.0 
        0.3350000000         0.4205314648
f   1 1.0 
        2.0270000000        27.9525230183
f   1 1.0 
        0.6850000000         2.4339063574
g   1 1.0 
        1.4270000000        17.5039221697

  4 0
s   8 1.0 
    90726.8892100000         0.2644615843
    13590.5288010000         0.4949373694
     3092.9883781000         0.8551699161
      875.9987636200         1.3898736510
      285.7446998200         2.1216984479
      103.1191341700         2.9797034650
       40.1285567770         3.6227997909
       16.5280957040         3.4518402365
s   2 1.0 
       69.3909609830         1.6219974198
       20.4282005960         6.3380762249
s   1 1.0 
        7.1292587972         3.1095201639
s   1 1.0 
        3.1324304893         1.6781128930
s   1 1.0 
        0.9875577872         0.7060443478
s   1 1.0 
        0.3876572131         0.3501434400
s   1 1.0 
        0.1490988307         0.1710077411
p   5 1.0 
      150.0574267000        -1.8341596231
       35.4915994830        -2.4061666955
       11.2478642230        -2.6529700970
        4.0900305195        -2.4826646205
        1.6220573146        -1.8181284959
p   1 1.0 
        0.6644226153         0.8550580417
p   1 1.0 
        0.2709977007         0.2787064987
p   1 1.0 
        0.1068874998         0.0871161625
d   1 1.0 
        2.8370000000        17.6796605055
d   1 1.0 
        0.9680000000         2.6930967689
d   1 1.0 
        0.3350000000         0.4205314648
f   1 1.0 
        2.0270000000        27.9525230183
f   1 1.0 
        0.6850000000         2.4339063574
g   1 1.0 
        1.4270000000        17.5039221697

[5D]
[9G]
[MO]
 Sym=     1a
 Ene= -1.57488806608968E+01
 Spin= Alpha
 Occup= 2.000000
  1       0.279231487651
  2      -0.000209714209
  3       0.185826521190
  4       0.084682414029
  5       0.005615594821
  6      -0.001851297112
  7       0.000903453138
  8       0.001081323370
  9       0.001090251782
 10       0.001072607752
 11       0.000938478126
 12       0.000967139076
 13       0.000913987639
 14      -0.000753380298
 15      -0.000725860131
 16      -0.000768518903
 17       0.000005199600
 18       0.000006825658
 19       0.000004216725
 20      -0.000002459576
 21       0.000041126533
 22       0.000043461336
 23      -0.000001671844
 24       0.000045259940
 25       0.000013485848
 26      -0.000038087693
 27      -0.000054332276
 28       0.000009142996
 29      -0.000067736246
 30       0.000005210001
 31       0.000270763801
 32       0.000253334759
 33       0.000005534126
 34       0.000242242692
 35      -0.000006023458
 36       0.000001397546
 37       0.000002937565
 38      -0.000001675443
 39       0.000016001234
 40       0.000007144631
 41      -0.000006395582
 42       0.000062027993
 43      -0.000044426544
 44      -0.000037800660
 45      -0.000006330620
 46       0.000046413295
 47      -0.000040481845
 48       0.000042231796
 49      -0.000009484275
 50       0.000006679039
 51       0.000005916509
 52       0.000001731415
 53      -0.000014722250
 54      -0.000017852646
 55       0.000015513541
 56       0.000004761838
 57      -0.000000105216
 58       0.265004055509
 59      -0.000195682108
 60       0.176348319260
 61       0.080396439623
 62       0.005210527512
 63      -0.001587604606
 64       0.001038749171
 65      -0.001014835406
 66      -0.001016606754
 67       0.001026055465
 68      -0.000883959341
 69      -0.000876197171
 70       0.000876484704
 71       0.000804528660
 72       0.000845502424
 73      -0.000834912741
 74       0.000004938786
 75       0.000006921540
 76      -0.000005800309
 77      -0.000000150805
 78      -0.000039249694
 79      -0.000037077994
 80       0.000000776168
 81       0.000038053508
 82       0.000005182228
 83       0.000046197359
 84       0.000036311140
 85      -0.000003753874
 86      -0.000048562477
 87      -0.000000365124
 88      -0.000275803871
 89      -0.000298068110
 90      -0.000014524819
 91       0.000282048981
 92      -0.000006977741
 93      -0.000003211044
 94      -0.000003601808
 95      -0.000000408964
 96       0.000016103333
 97      -0.000007066022
 98       0.000006922350
 99       0.000066161700
100       0.000035567101
101       0.000043365653
102       0.000008565262
103       0.000041524996
104       0.000055113044
105      -0.000048590956
106      -0.000009355160
107      -0.000005927498
108      -0.000006441341
109      -0.000001997200
110      -0.000017840727
111       0.000015967632
112      -0.000017766187
113       0.000008138684
114       0.000000547705
115       0.288441754645
116      -0.000219029282
117       0.191961767496
118       0.087457284455
119       0.005881147772
120      -0.002028708886
121       0.000820766764
122      -0.001127828635
123       0.001115388367
124      -0.001125484055
125      -0.000975682632
126       0.000985789732
127      -0.000980689439
128       0.000722742693
129      -0.000679949967
130       0.000691741609
131      -0.000011021308
132       0.000012589636
133      -0.000012312029
134      -0.000000000000
135       0.000046243457
136      -0.000047815247
137      -0.000000820229
138      -0.000046212367
139       0.000001687245
140      -0.000051995265
141       0.000067639125
142       0.000007950285
143       0.000060161162
144      -0.000007102365
145       0.000245320612
146      -0.000222177518
147       0.000010532785
148      -0.000238782818
149       0.000005465282
150      -0.000002217565
151       0.000003621093
152       0.000001336644
153       0.000016219905
154      -0.000005480589
155      -0.000005193375
156      -0.000055662891
157       0.000033275954
158      -0.000027915686
159       0.000007296481
160       0.000050451604
161       0.000043927732
162       0.000046379362
163      -0.000006200778
164       0.000005549530
165      -0.000005213585
166       0.000001558268
167       0.000016603145
168      -0.000015922481
169      -0.000014253113
170       0.000006313922
171      -0.000000038077
172       0.275105668666
173      -0.000205821013
174       0.183077649212
175       0.083439594000
176       0.005499185987
177      -0.001775314745
178       0.000949470650
179       0.001064156863
180      -0.001066028937
181      -0.001061957947
182       0.000923512359
183      -0.000915257554
184      -0.000928068970
185      -0.000768279995
186       0.000812543975
187       0.000740424559
188       0.000001650561
189       0.000000388024
190      -0.000002891327
191       0.000000908422
192      -0.000043869961
193       0.000041537115
194       0.000000824475
195      -0.000040095776
196      -0.000004966388
197       0.000059743293
198      -0.000049198443
199      -0.000003997984
200       0.000042385757
201      -0.000021152975
202      -0.000242888369
203       0.000266984800
204      -0.000015387895
205      -0.000281774008
206       0.000006506467
207       0.000003519665
208      -0.000004000646
209       0.000000420264
210       0.000016140573
211       0.000005727937
212       0.000005566742
213      -0.000061395784
214      -0.000025312462
215       0.000031200672
216      -0.000010741022
217       0.000045743804
218      -0.000057006773
219      -0.000052245806
220      -0.000006466920
221      -0.000005367586
222       0.000005250503
223      -0.000002161266
224       0.000018783524
225       0.000014534507
226       0.000016705773
227       0.000009099471
228      -0.000000161571
 Sym=     1a
 Ene= -1.57479712367010E+01
 Spin= Alpha
 Occup= 2.000000
  1      -0.170018956491
  2       0.000157131519
  3      -0.113269282273
  4      -0.051233685052
  5      -0.004804692157
  6       0.003350984936
  7       0.002006085511
  8      -0.000741328685
  9      -0.000699875906
 10      -0.000726654667
 11      -0.001026222226
 12      -0.000447347850
 13      -0.000897281561
 14      -0.001971194979
 15       0.000272928437
 16      -0.001492460039
 17      -0.000228848711
 18      -0.000092551944
 19      -0.000197148102
 20      -0.000020796441
 21      -0.000138531479
 22      -0.000011867322
 23      -0.000065615535
 24      -0.000038909746
 25       0.000083495802
 26       0.000479670473
 27      -0.000075235045
 28       0.000261940155
 29       0.000043351329
 30       0.000212356331
 31       0.001132102313
 32      -0.000153066560
 33       0.000655764740
 34       0.000118257245
 35      -0.000005758584
 36       0.000012949456
 37       0.000002946781
 38       0.000016832213
 39       0.000001194070
 40      -0.000004447746
 41      -0.000009642528
 42       0.000085858895
 43      -0.000360654370
 44       0.000072682070
 45      -0.000486423089
 46      -0.000045254495
 47       0.000152150143
 48       0.000072204537
 49      -0.000041697531
 50       0.000022391374
 51      -0.000002887125
 52       0.000119437752
 53       0.000005918270
 54      -0.000069002246
 55      -0.000027451819
 56      -0.000017458956
 57      -0.000007293630
 58      -0.082249520740
 59       0.000075466090
 60      -0.054794260632
 61      -0.024790634720
 62      -0.002289564365
 63       0.001549328129
 64       0.000899889953
 65       0.000318043457
 66       0.000362259397
 67      -0.000360533845
 68       0.000018131935
 69       0.000576188284
 70      -0.000521149536
 71      -0.000896513845
 72       0.001265912643
 73      -0.001045798977
 74      -0.000009921543
 75       0.000128601372
 76      -0.000117946663
 77      -0.000029765376
 78      -0.000016438578
 79       0.000108352783
 80       0.000063686249
 81       0.000004507918
 82       0.000115192953
 83       0.000131792403
 84      -0.000410075075
 85      -0.000250356839
 86      -0.000077432334
 87       0.000291309042
 88       0.000300991158
 89      -0.000956301351
 90      -0.000628043438
 91      -0.000174503396
 92      -0.000001665130
 93      -0.000002800162
 94      -0.000014453130
 95      -0.000018628689
 96       0.000000257345
 97      -0.000005173640
 98      -0.000009495422
 99       0.000054235461
100      -0.000056185155
101       0.000380257437
102       0.000476939667
103      -0.000016496966
104      -0.000000136653
105       0.000211454013
106      -0.000043166132
107       0.000004811438
108      -0.000023211812
109      -0.000118752195
110       0.000018772093
111      -0.000028264132
112      -0.000062973209
113      -0.000036787519
114       0.000005724696
115       0.464825028763
116      -0.000435342702
117       0.309688894565
118       0.140027030509
119       0.013286521368
120      -0.009285027544
121      -0.005686307098
122      -0.001999016048
123       0.001967076147
124      -0.001983873833
125      -0.002228448635
126       0.002115313638
127      -0.002099845749
128      -0.003313679075
129       0.002936189940
130      -0.002818260027
131      -0.000502717521
132       0.000480895157
133      -0.000471888056
134      -0.000011932226
135       0.000177803908
136      -0.000156851927
137       0.000010917634
138      -0.000184151590
139       0.000047248752
140      -0.000416067403
141       0.000330562560
142      -0.000039378711
143       0.000447897883
144       0.000111626499
145      -0.001073088837
146       0.000866646150
147      -0.000104304093
148       0.001144077936
149      -0.000020938624
150       0.000010120680
151      -0.000009142058
152       0.000002203739
153      -0.000005172174
154       0.000016643739
155       0.000018323398
156       0.000181595464
157      -0.000090946515
158       0.000028420918
159      -0.000070907473
160       0.000100331692
161      -0.000177139442
162      -0.000207411741
163       0.000032131599
164      -0.000013849414
165       0.000010759957
166      -0.000016974183
167      -0.000054697013
168       0.000044685759
169       0.000032071870
170      -0.000052884574
171      -0.000000208981
172      -0.235553888332
173       0.000218808198
174      -0.156932269747
175      -0.070976330448
176      -0.006640227085
177       0.004533385935
178       0.002703064214
179      -0.001013348447
180       0.001010626154
181       0.000971631784
182      -0.001261269013
183       0.001192118491
184       0.000752949963
185      -0.002176456637
186       0.001909602311
187       0.000215553084
188      -0.000283238962
189       0.000264723363
190       0.000155504676
191       0.000062918758
192       0.000058258132
193      -0.000042522929
194      -0.000007513748
195       0.000155851109
196      -0.000246059010
197      -0.000077401014
198       0.000008618296
199       0.000030486071
200      -0.000500325763
201      -0.000613689019
202      -0.000215714616
203       0.000060157629
204       0.000077471236
205      -0.001198560958
206       0.000012469678
207      -0.000006494553
208       0.000007990260
209      -0.000002313832
210       0.000002163347
211       0.000015175335
212       0.000016899815
213      -0.000033377165
214       0.000219159593
215      -0.000272985977
216       0.000060101820
217      -0.000053091716
218      -0.000325437657
219      -0.000351580830
220       0.000053480187
221       0.000005003060
222      -0.000008389326
223       0.000015021792
224       0.000073856558
225       0.000001626495
226      -0.000009457578
227       0.000106774870
228       0.000000762609
 Sym=     1a
 Ene= -1.57479568100616E+01
 Spin= Alpha
 Occup= 2.000000
  1       0.444543438575
  2      -0.000415689042
  3       0.296177668791
  4       0.133919509690
  5       0.012644133203
  6      -0.008720094485
  7      -0.005301491776
  8       0.001879647572
  9       0.001909280030
 10       0.001877640559
 11       0.001911663660
 12       0.002142679301
 13       0.002033481301
 14       0.002369050619
 15       0.003225219987
 16       0.002882115403
 17       0.000427000390
 18       0.000486666067
 19       0.000452861869
 20      -0.000000001005
 21       0.000140931862
 22       0.000189959993
 23      -0.000026809678
 24       0.000160952944
 25      -0.000002240013
 26      -0.000275540240
 27      -0.000489061046
 28       0.000104759577
 29      -0.000362199003
 30      -0.000013927935
 31      -0.000741371231
 32      -0.001231290268
 33       0.000258242565
 34      -0.000930881318
 35       0.000019825977
 36      -0.000009504697
 37      -0.000013732392
 38       0.000007479086
 39      -0.000005220091
 40      -0.000018406722
 41       0.000011902485
 42      -0.000185659634
 43       0.000034698160
 44       0.000199628025
 45      -0.000189514882
 46       0.000099533646
 47       0.000171220997
 48      -0.000080070077
 49       0.000046634055
 50      -0.000009857636
 51      -0.000018170487
 52       0.000045286901
 53       0.000037895480
 54       0.000023007050
 55      -0.000058816573
 56      -0.000030232569
 57      -0.000003255790
 58      -0.144622236984
 59       0.000134723966
 60      -0.096353187391
 61      -0.043574210794
 62      -0.004054225358
 63       0.002692506627
 64       0.001591669026
 65       0.000609003700
 66       0.000628635549
 67      -0.000591199459
 68       0.000672838047
 69       0.000902612122
 70      -0.000342415355
 71       0.000994145075
 72       0.001894767048
 73       0.000324837861
 74       0.000151478675
 75       0.000206444041
 76      -0.000062395406
 77       0.000061182198
 78      -0.000007258550
 79       0.000043155607
 80       0.000026980260
 81      -0.000120617643
 82      -0.000238827753
 83       0.000140261202
 84      -0.000078148933
 85      -0.000105852457
 86       0.000413533048
 87      -0.000603615472
 88       0.000301279647
 89      -0.000211964600
 90      -0.000266527912
 91       0.000990754132
 92      -0.000009226228
 93       0.000012978901
 94       0.000008098794
 95      -0.000007532841
 96       0.000002129364
 97      -0.000017795370
 98       0.000011297539
 99       0.000004072391
100      -0.000354155504
101      -0.000179177912
102       0.000193399051
103      -0.000039435358
104       0.000357420108
105      -0.000262223362
106       0.000061881325
107       0.000016234543
108       0.000005181019
109      -0.000047384521
110      -0.000065248277
111      -0.000031037504
112      -0.000006380738
113       0.000099560922
114       0.000004201812
115      -0.013743539424
116       0.000011910308
117      -0.009153805551
118      -0.004146976951
119      -0.000387880291
120       0.000315136184
121       0.000185618456
122       0.000069851763
123      -0.000029479522
124       0.000078715367
125       0.000199447188
126       0.000295035322
127       0.000318163296
128       0.000574916303
129       0.001343469839
130       0.001030549631
131       0.000042424261
132       0.000070928788
133       0.000073208257
134      -0.000046885842
135      -0.000085744427
136      -0.000022028384
137      -0.000055037937
138      -0.000049380391
139       0.000185624201
140       0.000367467739
141       0.000104932331
142       0.000219118559
143       0.000224079911
144       0.000466754086
145       0.000848034955
146       0.000252605462
147       0.000551712109
148       0.000525672809
149      -0.000002009374
150      -0.000013382748
151       0.000005010669
152      -0.000014029882
153      -0.000000667216
154       0.000011720104
155       0.000000091018
156      -0.000050167564
157       0.000415082326
158      -0.000043420692
159       0.000407708595
160       0.000003356155
161      -0.000294077501
162      -0.000113602601
163      -0.000058579334
164       0.000021787565
165       0.000001190860
166       0.000100765091
167      -0.000038660763
168      -0.000058355938
169       0.000019072876
170      -0.000066992913
171       0.000004726816
172      -0.297484651618
173       0.000277224164
174      -0.198195856681
175      -0.089627463879
176      -0.008425144151
177       0.005786440296
178       0.003485939681
179      -0.001241003334
180       0.001281422952
181       0.001265624700
182      -0.001077857750
183       0.001551738009
184       0.001435802512
185      -0.000768617550
186       0.002624821471
187       0.002166285476
188      -0.000233029651
189       0.000347124631
190       0.000322171055
191      -0.000014185401
192       0.000066339647
193      -0.000171013059
194       0.000055243511
195       0.000089458040
196       0.000057031723
197      -0.000065377293
198       0.000519436475
199      -0.000216320298
200      -0.000163826560
201       0.000147516854
202      -0.000199451020
203       0.001264244156
204      -0.000545408509
205      -0.000441155094
206       0.000012258464
207       0.000006448010
208      -0.000015592173
209       0.000016000251
210       0.000003108470
211       0.000013893165
212       0.000001172432
213      -0.000140095864
214       0.000030216764
215       0.000327921870
216      -0.000405148373
217      -0.000067200900
218      -0.000107289738
219       0.000077984775
220      -0.000049276037
221      -0.000001108811
222       0.000021300703
223      -0.000099252203
224       0.000012335105
225      -0.000006883975
226       0.000071258170
227      -0.000002246049
228      -0.000005425367
 Sym=     1a
 Ene= -1.57479298741803E+01
 Spin= Alpha
 Occup= 2.000000
  1      -0.051862037815
  2       0.000049926823
  3      -0.034557722266
  4      -0.015612257237
  5      -0.001494788518
  6       0.000993385407
  7       0.000624240592
  8      -0.000238735512
  9      -0.000227735472
 10      -0.000193089767
 11      -0.000469222131
 12      -0.000309138105
 13       0.000107148218
 14      -0.001308214388
 15      -0.000671667698
 16       0.000969243153
 17      -0.000115540925
 18      -0.000075756617
 19       0.000030890721
 20       0.000066016492
 21       0.000000936129
 22       0.000037813724
 23      -0.000018318114
 24      -0.000094575155
 25      -0.000255563010
 26      -0.000045594086
 27      -0.000204991152
 28       0.000071351801
 29       0.000366208282
 30      -0.000653012134
 31      -0.000082766321
 32      -0.000456772464
 33       0.000182479353
 34       0.000882155636
 35      -0.000005642514
 36      -0.000011925599
 37      -0.000015601366
 38       0.000005932473
 39       0.000001201064
 40       0.000010462229
 41      -0.000014834801
 42      -0.000046343257
 43       0.000246807908
 44       0.000374518815
 45      -0.000143108138
 46      -0.000005409143
 47      -0.000281192889
 48       0.000338055975
 49       0.000077000908
 50      -0.000007303954
 51      -0.000013895700
 52       0.000035807129
 53      -0.000063227541
 54       0.000005129096
 55      -0.000032318105
 56       0.000101640674
 57       0.000000199507
 58       0.457470839895
 59      -0.000425719781
 60       0.304787214247
 61       0.137828096931
 62       0.012918493406
 63      -0.008804295487
 64      -0.005285612450
 65      -0.001928977070
 66      -0.001921211300
 67       0.001956004613
 68      -0.002101608246
 69      -0.001941646757
 70       0.002165072588
 71      -0.002962749184
 72      -0.002330512906
 73       0.003154606244
 74      -0.000467298799
 75      -0.000427699379
 76       0.000478941051
 77       0.000016659938
 78      -0.000195107790
 79      -0.000158168497
 80       0.000017327540
 81       0.000147292736
 82      -0.000061364124
 83       0.000503904745
 84       0.000342025645
 85      -0.000069543671
 86      -0.000301353886
 87      -0.000164459390
 88       0.001253553127
 89       0.000879793260
 90      -0.000180393801
 91      -0.000777055103
 92       0.000018820950
 93       0.000016858107
 94       0.000013307457
 95      -0.000005523432
 96      -0.000004979092
 97       0.000011166839
 98      -0.000015065482
 99      -0.000192235823
100      -0.000250607109
101      -0.000119562462
102       0.000141122589
103       0.000106527792
104      -0.000040802347
105       0.000099027817
106       0.000061481625
107       0.000021339997
108       0.000012952803
109      -0.000035672442
110       0.000026649476
111      -0.000056725919
112       0.000029807349
113      -0.000012807195
114       0.000000728816
115      -0.087939131747
116       0.000083289472
117      -0.058592920046
118      -0.026481936888
119      -0.002548050266
120       0.001801625803
121       0.001134622524
122       0.000352105584
123      -0.000379467801
124       0.000397935940
125       0.000076566807
126      -0.000476591327
127       0.000674037566
128      -0.000703265359
129      -0.000885296920
130       0.001644136318
131       0.000015419585
132      -0.000110942373
133       0.000160758878
134      -0.000052249259
135      -0.000018241709
136       0.000108258343
137       0.000045963817
138      -0.000025779870
139       0.000204805844
140       0.000009642162
141      -0.000403169875
142      -0.000181537386
143       0.000180169664
144       0.000520708798
145       0.000048046768
146      -0.000969085770
147      -0.000461314761
148       0.000392684918
149       0.000001858146
150      -0.000009750691
151       0.000017744715
152       0.000013263838
153       0.000001447563
154      -0.000001592287
155       0.000009177800
156      -0.000084849682
157       0.000119425643
158      -0.000435475716
159      -0.000346271599
160      -0.000020316418
161      -0.000118899755
162      -0.000273605013
163      -0.000072621456
164       0.000004695237
165      -0.000025125714
166      -0.000086524933
167      -0.000035687630
168       0.000004993472
169      -0.000061118556
170      -0.000067648789
171      -0.000004291579
172      -0.295836737557
173       0.000277283256
174      -0.197104567947
175      -0.089113471776
176      -0.008450643737
177       0.005868422124
178       0.003599969522
179      -0.001268768857
180       0.001240227825
181       0.001267445002
182      -0.001482676038
183       0.001082216342
184       0.001509349196
185      -0.002416952102
186       0.000830625277
187       0.002517204899
188      -0.000336866079
189       0.000241205752
190       0.000345293605
191      -0.000028974045
192       0.000172555349
193      -0.000082124999
194      -0.000045367229
195       0.000075602851
196       0.000115616819
197      -0.000526049208
198       0.000131856423
199       0.000179024222
200      -0.000102828005
201       0.000297008069
202      -0.001293951968
203       0.000371020758
204       0.000459271498
205      -0.000309279531
206       0.000012048059
207       0.000018720730
208      -0.000010014698
209      -0.000013363604
210       0.000003733460
211       0.000000734670
212       0.000011572883
213      -0.000149163217
214      -0.000379697979
215       0.000060703903
216       0.000346089947
217      -0.000067188435
218       0.000114833596
219      -0.000039579658
220      -0.000065686211
221      -0.000027032483
222       0.000005752640
223       0.000086735347
224       0.000001977741
225       0.000070869068
226       0.000004721713
227      -0.000019738728
228       0.000004352255
 Sym=     1a
 Ene= -1.65183037627103E+00
 Spin= Alpha
 Occup= 2.000000
  1      -0.052849135330
  2      -0.007525546379
  3      -0.063668623588
  4      -0.036738051094
  5       0.124124008191
  6       0.191363648290
  7       0.034984825274
  8       0.035115685794
  9       0.035073078171
 10       0.035140691357
 11      -0.039504857690
 12      -0.039476611316
 13      -0.039517156863
 14      -0.021338156480
 15      -0.021427010601
 16      -0.021243656500
 17      -0.001191977651
 18      -0.001210540317
 19      -0.001173654140
 20       0.000001279646
 21       0.001285456588
 22       0.001268705012
 23       0.000001701332
 24       0.001252906501
 25      -0.000035592146
 26       0.007371815638
 27       0.007308882070
 28      -0.000016935036
 29       0.007247973947
 30      -0.000110389537
 31       0.007402811688