[Molden Format]
[Atoms] (Angs)
  N      1    7     -0.64251165     -0.00000000     -0.63126166
  N      2    7      0.73569921      0.42457822     -0.30804628
  N      3    7     -0.30735811      0.42457822      0.72888739
  N      4    7      0.21417055     -0.84915644      0.21042055
[GTO]
1    0
S    7    1.000000
   9.04600000E+03    7.00000000E-04 
   1.35700000E+03    5.38983000E-03 
   3.09300000E+02    2.74060000E-02 
   8.77300000E+01    1.03262320E-01 
   2.85600000E+01    2.78905240E-01 
   1.02100000E+01    4.50217400E-01 
   3.83800000E+00    2.79943000E-01 
S    7    1.000000
   9.04600000E+03    5.00000000E-08 
   1.35700000E+03   -2.97600000E-05 
   8.77300000E+01   -1.97900000E-03 
   2.85600000E+01   -6.51949000E-03 
   1.02100000E+01   -6.00100000E-02 
   3.83800000E+00   -6.09975300E-02 
   7.46600000E-01    5.52378750E-01 
S    1    1.000000
   2.24800000E-01    1.00000000E+00 
P    3    1.000000
   1.35500000E+01    3.99190000E-02 
   2.91700000E+00    2.17169000E-01 
   7.97300000E-01    5.10319000E-01 
P    1    1.000000
   2.18500000E-01    1.00000000E+00 
D    1    1.000000
   8.17000000E-01    1.00000000E+00 

2    0
S    7    1.000000
   9.04600000E+03    7.00000000E-04 
   1.35700000E+03    5.38983000E-03 
   3.09300000E+02    2.74060000E-02 
   8.77300000E+01    1.03262320E-01 
   2.85600000E+01    2.78905240E-01 
   1.02100000E+01    4.50217400E-01 
   3.83800000E+00    2.79943000E-01 
S    7    1.000000
   9.04600000E+03    5.00000000E-08 
   1.35700000E+03   -2.97600000E-05 
   8.77300000E+01   -1.97900000E-03 
   2.85600000E+01   -6.51949000E-03 
   1.02100000E+01   -6.00100000E-02 
   3.83800000E+00   -6.09975300E-02 
   7.46600000E-01    5.52378750E-01 
S    1    1.000000
   2.24800000E-01    1.00000000E+00 
P    3    1.000000
   1.35500000E+01    3.99190000E-02 
   2.91700000E+00    2.17169000E-01 
   7.97300000E-01    5.10319000E-01 
P    1    1.000000
   2.18500000E-01    1.00000000E+00 
D    1    1.000000
   8.17000000E-01    1.00000000E+00 

3    0
S    7    1.000000
   9.04600000E+03    7.00000000E-04 
   1.35700000E+03    5.38983000E-03 
   3.09300000E+02    2.74060000E-02 
   8.77300000E+01    1.03262320E-01 
   2.85600000E+01    2.78905240E-01 
   1.02100000E+01    4.50217400E-01 
   3.83800000E+00    2.79943000E-01 
S    7    1.000000
   9.04600000E+03    5.00000000E-08 
   1.35700000E+03   -2.97600000E-05 
   8.77300000E+01   -1.97900000E-03 
   2.85600000E+01   -6.51949000E-03 
   1.02100000E+01   -6.00100000E-02 
   3.83800000E+00   -6.09975300E-02 
   7.46600000E-01    5.52378750E-01 
S    1    1.000000
   2.24800000E-01    1.00000000E+00 
P    3    1.000000
   1.35500000E+01    3.99190000E-02 
   2.91700000E+00    2.17169000E-01 
   7.97300000E-01    5.10319000E-01 
P    1    1.000000
   2.18500000E-01    1.00000000E+00 
D    1    1.000000
   8.17000000E-01    1.00000000E+00 

4    0
S    7    1.000000
   9.04600000E+03    7.00000000E-04 
   1.35700000E+03    5.38983000E-03 
   3.09300000E+02    2.74060000E-02 
   8.77300000E+01    1.03262320E-01 
   2.85600000E+01    2.78905240E-01 
   1.02100000E+01    4.50217400E-01 
   3.83800000E+00    2.79943000E-01 
S    7    1.000000
   9.04600000E+03    5.00000000E-08 
   1.35700000E+03   -2.97600000E-05 
   8.77300000E+01   -1.97900000E-03 
   2.85600000E+01   -6.51949000E-03 
   1.02100000E+01   -6.00100000E-02 
   3.83800000E+00   -6.09975300E-02 
   7.46600000E-01    5.52378750E-01 
S    1    1.000000
   2.24800000E-01    1.00000000E+00 
P    3    1.000000
   1.35500000E+01    3.99190000E-02 
   2.91700000E+00    2.17169000E-01 
   7.97300000E-01    5.10319000E-01 
P    1    1.000000
   2.18500000E-01    1.00000000E+00 
D    1    1.000000
   8.17000000E-01    1.00000000E+00 

[MO]
Sym=X
Ene= -15.752140
Spin=Alpha
Occup=1
     1    5.032364238243e-01
     2    8.291696443920e-03
     3   -1.392547605669e-03
     4    1.291594120051e-03
     5    3.471229807805e-07
     6    1.279116241486e-03
     7   -8.776403213805e-04
     8    1.301666455794e-06
     9   -8.794131532467e-04
    10   -7.724724950426e-05
    11   -2.796446987000e-04
    12   -2.566833136628e-06
    13   -1.419837545761e-04
    14    1.878147915813e-06
    15    5.050102832015e-01
    16    8.299325109248e-03
    17   -1.363452580314e-03
    18   -1.479315828425e-03
    19   -8.570439798233e-04
    20    6.237454911200e-04
    21    9.871423163932e-04
    22    5.784805568555e-04
    23   -4.247419501539e-04
    24    1.076373557187e-04
    25    1.552687882175e-04
    26    8.949389361659e-05
    27   -1.213015537528e-04
    28   -2.116494560990e-04
    29    4.913412694535e-01
    30    8.131088006215e-03
    31   -1.356091408335e-03
    32    6.077418287114e-04
    33   -8.428981572414e-04
    34   -1.454681067867e-03
    35   -4.192073396347e-04
    36    5.829080840037e-04
    37    1.007496807231e-03
    38   -1.633619727432e-04
    39    1.562306914937e-04
    40   -2.202728792329e-04
    41    2.643984591422e-05
    42    9.063882099897e-05
    43    4.956217253340e-01
    44    8.176393934227e-03
    45   -1.342030449822e-03
    46   -4.254318797463e-04
    47    1.693945308007e-03
    48   -4.224504761737e-04
    49    2.852920858986e-04
    50   -1.152167796382e-03
    51    2.872709157104e-04
    52    1.392970024003e-04
    53   -3.199434126137e-05
    54    1.280473629087e-04
    55    2.329555488710e-04
    56    1.243378661818e-04
Sym=X
Ene= -15.751229
Spin=Alpha
Occup=1
     1   -6.086430006551e-01
     2   -9.256689756632e-03
     3    4.174316285390e-03
     4   -1.107148584655e-03
     5    4.652892326807e-05
     6   -1.248354996502e-03
     7    1.540596281393e-03
     8    1.763714613049e-04
     9    9.783251766065e-04
    10    7.193625855063e-05
    11   -1.985712459836e-04
    12   -2.887478630925e-05
    13   -1.981836638177e-04
    14   -7.956620768136e-05
    15    7.779413892281e-01
    16    1.180895461817e-02
    17   -5.342782048668e-03
    18   -1.684010267838e-03
    19   -1.018223969590e-03
    20    7.861920823285e-04
    21    1.983936541482e-03
    22    9.944251336823e-04
    23   -5.714546050747e-04
    24   -1.345777876991e-04
    25   -9.166739672929e-05
    26   -4.487911674932e-05
    27    1.857192408197e-04
    28    2.132766986951e-04
    29   -1.330639181855e-01
    30   -2.030973939538e-03
    31    9.134437455157e-04
    32    1.053071398228e-05
    33    2.281464184342e-04
    34    3.204588148107e-04
    35    6.737739559085e-04
    36    3.397854673104e-05
    37   -2.226167585987e-04
    38    5.780049025229e-05
    39    2.479929505529e-04
    40    6.813970278857e-05
    41   -1.110460124216e-04
    42    4.929419895819e-05
    43   -4.277007204948e-02
    44   -6.509148342295e-04
    45    2.775397429513e-04
    46    1.733755722298e-04
    47   -7.394469708421e-05
    48    3.516789310780e-05
    49    5.512879171067e-04
    50    2.643733531174e-04
    51    3.999636877938e-07
    52    4.262803993191e-05
    53    1.101137699291e-04
    54    3.049936493114e-05
    55    1.174920447327e-04
    56   -2.278432243904e-04
Sym=X
Ene= -15.751206
Spin=Alpha
Occup=1
     1   -4.691959741466e-01
     2   -7.121031754663e-03
     3    3.220335887384e-03
     4   -9.319434465461e-04
     5   -1.217776751345e-04
     6   -8.842698214350e-04
     7    8.792673155021e-04
     8   -4.795641351840e-04
     9    1.047413125941e-03
    10   -8.354115219366e-05
    11   -1.990332738636e-04
    12    1.434374461141e-04
    13   -1.639291415438e-05
    14    1.675128046820e-04
    15   -3.241217553141e-01
    16   -4.909517276024e-03
    17    2.218103129637e-03
    18    7.985205522015e-04
    19    3.221556485293e-04
    20   -2.423110141348e-04
    21   -4.389799721696e-04
    22   -8.175856472286e-04
    23    5.631056742861e-04
    24    2.269018855737e-05
    25    1.250225213714e-04
    26    1.558603283409e-04
    27    1.652818033021e-04
    28   -1.366261193057e-04
    29   -1.186363252410e-02
    30   -1.808449430348e-04
    31    1.097817331415e-04
    32    2.305892745242e-05
    33   -1.067138169189e-04
    34    1.048210509225e-04
    35    1.507099675783e-04
    36   -4.926578655178e-04
    37    2.909765454009e-04
    38    2.056682891304e-04
    39    1.677298139356e-05
    40   -7.594553116154e-05
    41    1.320069672616e-04
    42    1.267135631711e-04
    43    8.184298748923e-01
    44    1.243744926236e-02
    45   -5.586061351424e-03
    46   -5.300881436960e-04
    47    2.129739914737e-03
    48   -4.793055497669e-04
    49    5.692863076367e-04
    50   -2.193325430816e-03
    51    7.458238814239e-04
    52   -1.145260372774e-04
    53    6.809171368504e-05
    54   -2.052199196764e-04
    55   -2.145621930354e-04
    56   -1.190608868967e-04
Sym=X
Ene= -15.751190
Spin=Alpha
Occup=1
     1   -3.890668425548e-01
     2   -5.896558256671e-03
     3    2.663962001791e-03
     4   -8.299857625712e-04
     5    7.403582958825e-05
     6   -6.793760672200e-04
     7    4.912088069114e-04
     8    3.037558831561e-04
     9    1.093750124148e-03
    10   -2.435252621814e-04
    11   -1.359233105052e-04
    12   -1.389203056072e-04
    13    6.063414447586e-06
    14   -6.812242346419e-05
    15   -1.730082453503e-01
    16   -2.617009443528e-03
    17    1.198377481017e-03
    18    3.779617959617e-04
    19    3.118903675248e-04
    20   -4.655192819100e-05
    21   -4.263750496270e-04
    22    1.253061981929e-04
    23    6.257326206665e-04
    24   -1.061808321529e-04
    25    2.344620433965e-04
    26    1.203414189229e-05
    27   -1.004869562546e-04
    28    6.337589020784e-05
    29    8.578718922280e-01
    30    1.304951863191e-02
    31   -5.850684050455e-03
    32    8.191344313538e-04
    33   -1.108914282195e-03
    34   -1.924641773320e-03
    35   -7.643052887380e-04
    36    1.199494273036e-03
    37    2.039490998994e-03
    38    2.018298709989e-04
    39   -1.277190116920e-04
    40    2.536131181519e-04
    41   -4.922325434057e-05
    42   -8.781180486238e-05
    43   -2.791298693089e-01
    44   -4.236067898874e-03
    45    1.937461649982e-03
    46    1.628136790933e-04
    47   -6.876595521272e-04
    48    3.154599920097e-04
    49   -2.630021753883e-04
    50    8.895548022791e-04
    51    3.473604381638e-04
    52    1.114602013493e-04
    53    7.596649018644e-05
    54   -1.798337646331e-04
    55    1.494346616033e-04
    56    1.085005146950e-04
Sym=X
Ene= -1.664764
Spin=Alpha
Occup=1
     1   -9.516162179523e-02
     2    2.026525057624e-01
     3    1.221478903129e-01
     4    9.083629793980e-02
     5    1.262722415965e-05
     6    9.134916500573e-02
     7    2.920111616384e-02
     8   -3.923881441432e-07
     9    2.905728391474e-02
    10    6.223327084919e-03
    11    2.167804393064e-02
    12    8.309246826714e-05
    13    1.085846082257e-02
    14   -7.943309942022e-05
    15   -9.451558108788e-02
    16    2.013610940274e-01
    17    1.208672163912e-01
    18   -1.038689044743e-01
    19   -6.019262139959e-02
    20    4.436488461934e-02
    21   -3.300884796633e-02
    22   -1.919636036620e-02
    23    1.400454889385e-02
    24   -8.101436174145e-03
    25   -1.215492569284e-02
    26   -6.994276860832e-03
    27    9.463066943285e-03
    28    1.647246217396e-02
    29   -9.580820865270e-02
    30    2.039370476912e-01
    31    1.234730295951e-01
    32    4.363742471118e-02
    33   -6.126168522464e-02
    34   -1.056042721210e-01
    35    1.414621116163e-02
    36   -1.965445807243e-02
    37   -3.399832650013e-02
    38    1.236266192755e-02
    39   -1.192785752283e-02
    40    1.676255024373e-02
    41   -2.289055221034e-03
    42   -6.968794734499e-03
    43   -9.515369994617e-02
    44    2.026320193461e-01
    45    1.221566332544e-01
    46   -3.075938565396e-02
    47    1.214416633623e-01
    48   -2.995420980077e-02
    49   -9.709459450767e-03
    50    3.884585066517e-02
    51   -9.714023941883e-03
    52   -1.055191748173e-02
    53    2.407457688185e-03
    54   -9.526969342019e-03
    55   -1.799335239728e-02
    56   -9.740596304761e-03
Sym=X
Ene= -1.049883
Spin=Alpha
Occup=1
     1    1.147895036723e-01
     2   -2.642609445194e-01
     3   -3.358401327457e-01
     4    8.939223617531e-02
     5   -2.686792155188e-02
     6   -9.882573487150e-02
     7    4.050591120133e-03
     8   -8.393388575357e-03
     9   -5.564578033067e-02
    10   -2.251366283431e-02
    11   -1.341539526610e-03
    12   -6.290884630627e-03
    13    1.119316165786e-02
    14   -8.802113519958e-04
    15   -1.229901526564e-01
    16    2.829147238652e-01
    17    3.599145929195e-01
    18    6.693183473556e-02
    19   -9.412519110438e-02
    20    4.795387148594e-02
    21   -8.777553519342e-03
    22   -4.731945679989e-02
    23    2.808096059577e-02
    24    1.755593334976e-03
    25   -4.287709742662e-03
    26   -1.116296000558e-02
    27   -1.946141079111e-02
    28    7.224967441403e-03
    29    6.750069193802e-02
    30   -1.554528616958e-01
    31   -1.975882822248e-01
    32    1.602162306181e-01
    33    1.177528152389e-02
    34    6.449078961452e-02
    35    4.392526643669e-02
    36    1.330126367190e-02
    37    3.684870802763e-02
    38   -1.756952732895e-02
    39   -2.314662402003e-02
    40   -8.262259851710e-03
    41    8.656849150898e-03
    42   -1.045554763190e-02
    43   -6.033524332714e-02
    44    1.387550871149e-01
    45    1.768430287162e-01
    46    1.686931211867e-01
    47    4.096796306289e-02
    48   -1.839884185623e-02
    49    4.923288710396e-02
    50    3.024053678567e-02
    51   -1.012238603445e-02
    52   -1.924925607945e-03
    53   -9.718901626717e-03
    54   -6.822991073733e-03
    55   -1.310193068570e-02
    56    2.840891521234e-02
Sym=X
Ene= -1.046458
Spin=Alpha
Occup=1
     1   -3.209688355090e-02
     2    7.386978206858e-02
     3    9.441660522303e-02
     4    1.169038761301e-03
     5   -1.847462327135e-01
     6    4.566333254184e-04
     7    7.086486685912e-03
     8   -5.911341092819e-02
     9    7.123858628524e-03
    10   -2.254220714292e-03
    11    3.030475646942e-03
    12   -2.463053862931e-02
    13   -3.698487103640e-03
    14   -2.479047809708e-02
    15    8.735105746954e-02
    16   -2.010190464174e-01
    17   -2.566744538370e-01
    18    5.699419796447e-02
    19   -1.358255788042e-01
    20   -6.090723969078e-02
    21    3.954049760013e-02
    22   -3.103796774796e-02
    23   -2.853567211264e-02
    24   -8.574853950633e-03
    25    1.405285168767e-02
    26   -6.453310579829e-03
    27   -2.099468318160e-02
    28    1.335551838518e-02
    29    8.690031946432e-02
    30   -2.000254242353e-01
    31   -2.558500860652e-01
    32   -6.079871654057e-02
    33   -1.371376031526e-01
    34    5.781445122931e-02
    35   -2.834685621060e-02
    36   -3.154405433161e-02
    37    3.989395047288e-02
    38   -1.395636966845e-02
    39    1.405123394998e-02
    40    1.349912993004e-02
    41   -1.816318906717e-02
    42   -6.458846177009e-03
    43   -1.421563796476e-01
    44    3.271754918546e-01
    45    4.181209275522e-01
    46   -6.602638424754e-02
    47   -2.720957471819e-02
    48   -6.445268897625e-02
    49   -3.128731407725e-02
    50    3.168853742818e-02
    51   -3.065721395140e-02
    52    3.816719475711e-03
    53    8.491138335021e-03
    54   -1.002755578633e-02
    55    6.961256222181e-03
    56   -1.030382309690e-02
Sym=X
Ene= -1.043083
Spin=Alpha
Occup=1
     1    1.144923867440e-01
     2   -2.634351403326e-01
     3   -3.385227082066e-01
     4   -9.530308195289e-02
     5   -2.486543737043e-02
     6    9.309365203489e-02
     7   -5.532682258874e-02
     8   -8.158161374034e-03
     9    5.484029822376e-03
    10    2.121941151274e-02
    11   -7.549438474256e-04
    12   -6.697031564097e-04
    13   -1.380821009655e-02
    14   -5.995363088090e-03
    15    6.831049950167e-02
    16   -1.571210031177e-01
    17   -2.018578747066e-01
    18    6.169293525944e-02
    19    1.176060777405e-02
    20    1.583550883513e-01
    21    3.679412053925e-02
    22    1.352183408883e-02
    23    4.401695310135e-02
    24    1.634057304821e-02
    25   -2.262920019967e-02
    26   -1.016568842750e-02
    27   -1.063763280295e-02
    28   -8.197476371563e-03
    29   -1.228770174939e-01
    30    2.829574553270e-01
    31    3.632299380744e-01
    32    4.721730828216e-02
    33   -9.383662340554e-02
    34    7.117266686919e-02
    35    2.767949871937e-02
    36   -4.775198755616e-02
    37   -7.270282032190e-03
    38   -1.819870988128e-02
    39   -4.133586005106e-03
    40    6.922287172033e-03
    41   -8.281658037346e-03
    42   -1.114738548448e-02
    43   -5.888417964277e-02
    44    1.356303374890e-01
    45    1.737840639650e-01
    46   -1.822522962802e-02
    47    3.945771271138e-02
    48    1.713437787428e-01
    49   -1.006157012857e-02
    50    2.936467187361e-02
    51    5.110088697641e-02
    52   -1.014657946284e-02
    53   -9.902526945906e-03
    54    2.869210755902e-02
    55   -8.080508393540e-03
    56   -6.830179965352e-03
Sym=X
Ene= -0.685760
Spin=Alpha
Occup=1
     1    4.694699970228e-02
     2   -9.757662298135e-02
     3   -2.192026023231e-01
     4    2.039495488402e-01
     5   -3.636946904525e-06
     6    2.003846168519e-01
     7    1.073691653645e-01
     8   -4.731520244389e-06
     9    1.050504813948e-01
    10    8.861820639956e-03
    11    3.244663378818e-02
    12   -9.538785379313e-05
    13    1.651695627633e-02
    14    9.463596100819e-05
    15    4.695928151141e-02
    16   -9.753915416861e-02
    17   -2.197983440385e-01
    18   -2.312074778984e-01
    19   -1.333857392568e-01
    20    9.678483610598e-02
    21   -1.210039411869e-01
    22   -6.992618872957e-02
    23    5.051886322166e-02
    24   -1.209157600630e-02
    25   -1.787390102605e-02
    26   -1.037301394909e-02
    27    1.430305356806e-02
    28    2.473675488152e-02
    29    4.692465900646e-02
    30   -9.759049154814e-02
    31   -2.185225640794e-01
    32    9.854559788583e-02
    33   -1.361518490279e-01
    34   -2.337307487778e-01
    35    5.210768311932e-02
    36   -7.169143451054e-02
    37   -1.232794546690e-01
    38    1.841718562321e-02
    39   -1.817791399643e-02
    40    2.501551341703e-02
    41   -3.529437897041e-03
    42   -1.052740045489e-02
    43    4.694624215000e-02
    44   -9.757290297950e-02
    45   -2.191850377264e-01
    46   -6.802501790925e-02
    47    2.695290488552e-01
    48   -6.677923808288e-02
    49   -3.552863051583e-02
    50    1.416057785040e-01
    51   -3.529877806446e-02
    52   -1.563769616347e-02
    53    3.607575881081e-03
    54   -1.430937929911e-02
    55   -2.702427311772e-02
    56   -1.454021865405e-02
Sym=X
Ene= -0.571335
Spin=Alpha
Occup=1
     1    4.660295733874e-02
     2   -1.221270466869e-01
     3   -1.527722785624e-01
     4    8.112576062748e-03
     5   -1.088748037559e-01
     6    2.772218555685e-01
     7    3.409558092976e-02
     8   -5.987920346878e-02
     9    1.817459669765e-01
    10    2.355299316759e-02
    11    4.215515391957e-03
    12   -1.381017545791e-02
    13   -5.518466136759e-03
    14   -5.208089530373e-03
    15   -7.914384774709e-02
    16    2.077073314359e-01
    17    2.590517831095e-01
    18    2.441177578429e-01
    19    1.652081464976e-01
    20   -1.803877362097e-01
    21    1.919157969912e-01
    22    1.236764905943e-01
    23   -1.233586860238e-01
    24   -2.020418446948e-03
    25    9.605763095759e-03
    26    8.176489399717e-03
    27   -2.071709274381e-03
    28   -7.378925463579e-03
    29    1.537968142537e-02
    30   -4.022034466478e-02
    31   -5.056956758091e-02
    32   -2.039904483873e-01
    33   -1.685029010644e-01
    34   -6.913173027448e-02
    35   -1.073122330058e-01
    36   -9.934055982212e-02
    37   -4.889849586194e-02
    38    1.397695466281e-03
    39    1.673102011829e-02
    40    1.753162055317e-02
    41   -1.852419763433e-02
    42    1.372596619908e-02
    43    1.690831486897e-02
    44   -4.421860326557e-02
    45   -5.570158233583e-02
    46   -2.647602135220e-01
    47    7.602922969400e-03
    48   -2.218529875405e-03
    49   -1.481913103324e-01
    50    1.815569578791e-02
    51   -4.559772505135e-03
    52   -6.664191974377e-03
    53    9.199726011227e-04
    54   -5.118304255620e-04
    55    1.592863163090e-02
    56   -2.776467757937e-02
Sym=X
Ene= -0.570199
Spin=Alpha
Occup=1
     1   -4.945782397280e-02
     2    1.298221212719e-01
     3    1.616069036029e-01
     4   -1.478398681357e-01
     5   -2.129066118034e-01
     6   -1.517833767413e-01
     7   -1.130757652747e-01
     8   -1.171961894194e-01
     9   -1.148607544717e-01
    10    1.253138369857e-03
    11   -9.909951345414e-03
    12   -1.882659049005e-02
    13    2.158237703115e-03
    14   -1.780160690998e-02
    15   -1.545653337222e-02
    16    4.055414772950e-02
    17    5.064709612780e-02
    18    1.979642364828e-01
    19   -1.526197203529e-01
    20    7.388449000532e-02
    21    1.194478248359e-01
    22   -7.689642909481e-02
    23    3.601881029393e-02
    24    1.486210782220e-02
    25    3.078534420307e-04
    26   -1.129430314424e-02
    27   -2.330161970194e-02
    28    1.281933658779e-02
    29   -1.297323945440e-02
    30    3.406735803105e-02
    31    4.225107129928e-02
    32    8.167242987477e-02
    33   -1.700819253323e-01
    34    2.042757511632e-01
    35    4.088609851754e-02
    36   -8.852764206255e-02
    37    1.227234078737e-01
    38   -2.900280806639e-02
    39   -3.211594113211e-04
    40    1.322396207984e-02
    41   -3.103461549349e-04
    42   -1.166588888268e-02
    43    7.788060637929e-02
    44   -2.044498807927e-01
    45   -2.544271711597e-01
    46   -3.386916675207e-02
    47    3.413727515076e-01
    48   -1.571584466690e-02
    49   -3.596010750571e-02
    50    2.540519918512e-01
    51   -2.450052742504e-02
    52   -7.781141242705e-03
    53    6.388266071741e-04
    54    2.568497307606e-03
    55   -1.311989963070e-02
    56    5.917585072873e-04
Sym=X
Ene= -0.569000
Spin=Alpha
Occup=1
     1   -4.550200680886e-02
     2    1.196651943715e-01
     3    1.481042957773e-01
     4   -2.687469080983e-01
     5    1.191609790626e-01
     6   -3.940403123395e-03
     7   -1.774586964261e-01
     8    6.561703553637e-02
     9   -3.127581731638e-02
    10    1.647980426054e-02
    11   -3.778272162081e-03
    12    5.462025532732e-03
    13   -1.702453747295e-02
    14    1.477491818281e-02
    15   -1.535622889117e-02
    16    4.046125952412e-02
    17    4.985542414240e-02
    18    6.542018283554e-02
    19    1.687892244335e-01
    20    1.961557597331e-01
    21    4.770622757774e-02
    22    9.931859241588e-02
    23    1.034260057625e-01
    24    1.636909840299e-02
    25   -1.582441965620e-02
    26   -1.351012810074e-02
    27    8.370739109909e-03
    28   -1.756572720714e-02
    29    7.896650453638e-02
    30   -2.073633004948e-01
    31   -2.574487429290e-01
    32    1.727002873067e-01
    33   -1.685610850011e-01
    34   -2.471251096675e-01
    35    1.196656346537e-01
    36   -1.272150938907e-01
    37   -1.944241489871e-01
    38    9.773833377538e-04
    39   -8.776651658082e-03
    40    7.148088099992e-03
    41    2.299949227035e-03
    42   -8.240853106226e-03
    43   -1.835810581433e-02
    44    4.836896986740e-02
    45    5.948355491534e-02
    46    6.530126525108e-03
    47   -1.516614567656e-02
    48    2.764887101136e-01
    49    7.799338820012e-03
    50   -2.439927493366e-02
    51    1.571232133936e-01
    52   -1.679843719213e-02
    53   -1.880013122475e-03
    54    2.854054925150e-02
    55   -2.003753146812e-03
    56    6.711637520215e-04
Sym=X
Ene= -0.536731
Spin=Alpha
Occup=1
     1   -1.025726081773e-03
     2    3.261656168681e-03
     3    2.207732346953e-03
     4   -1.635401705257e-01
     5    2.292260251710e-01
     6    1.593484952425e-01
     7   -1.105497737458e-01
     8    1.537484934287e-01
     9    1.060214060073e-01
    10    2.414286860774e-02
    11   -8.201393643434e-03
    12    2.545749061896e-02
    13    2.175363288155e-03
    14    2.677098075054e-03
    15    7.016223721291e-04
    16   -1.655803335220e-03
    17   -2.607464999727e-03
    18    1.513351008453e-01
    19   -2.955671821874e-01
    20   -3.623075135227e-02
    21    1.011083138639e-01
    22   -1.980244996598e-01
    23   -2.415587695152e-02
    24   -1.658141285806e-02
    25    7.334402488432e-03
    26   -1.987289779537e-02
    27   -2.507796805424e-02
    28    3.276650097560e-03
    29   -5.503528828020e-04
    30    1.912228340548e-03
    31    8.663145751954e-04
    32   -3.012446673251e-01
    33   -2.247494814876e-02
    34   -1.105309441139e-01
    35   -2.026781448905e-01
    36   -1.471271846629e-02
    37   -7.360434935657e-02
    38    1.681824762842e-02
    39    3.060229954578e-02
    40    8.586525587780e-03
    41    2.672763747262e-03
    42   -2.588640001462e-03
    43    1.219358376120e-03
    44   -3.115708532693e-03
    45   -4.078909864191e-03
    46    3.209809653603e-01
    47    8.428702735387e-02
    48   -1.117101932546e-02
    49    2.151278249684e-01
    50    5.719099835008e-02
    51   -7.651836118291e-03
    52   -1.186283943296e-02
    53   -2.162784350309e-02
    54   -9.778590197294e-03
    55   -4.487018109090e-03
    56    2.518627403711e-02
Sym=X
Ene= -0.531469
Spin=Alpha
Occup=1
     1    8.731803022692e-04
     2   -2.866322876612e-03
     3   -1.710317911498e-03
     4    1.677042261926e-01
     5    2.339430148179e-01
     6   -1.646157273836e-01
     7    1.144585188487e-01
     8    1.585542229540e-01
     9   -1.107707455638e-01
    10   -1.061373460184e-02
    11   -7.975587602505e-03
    12    2.877796916901e-03
    13    2.229834569387e-02
    14    2.575455208315e-02
    15    4.764976214851e-04
    16   -1.722043730626e-03
    17   -6.401516807206e-04
    18   -1.215388226653e-01
    19   -1.919746269435e-02
    20   -3.099547379570e-01
    21   -8.287459931471e-02
    22   -1.331069902175e-02
    23   -2.094350268301e-01
    24   -7.332729465437e-03
    25    3.056442442714e-02
    26   -1.816393365447e-03
    27    1.686844042124e-02
    28    8.539726793935e-03
    29   -6.576476480516e-04
    30    1.533424235428e-03
    31    2.481268685409e-03
    32   -3.958675621783e-02
    33   -2.818191414902e-01
    34    1.511959964870e-01
    35   -2.696759620474e-02
    36   -1.911014808988e-01
    37    1.027527349420e-01
    38   -1.196625702386e-02
    39    7.116230077429e-03
    40    2.098280874957e-03
    41   -2.688553118272e-02
    42   -1.946880872289e-02
    43   -1.023444321218e-03
    44    2.597953213066e-03
    45    3.456249149206e-03
    46   -7.720787816460e-03
    47    7.127140877609e-02
    48    3.160499754224e-01
    49   -5.091059136854e-03
    50    4.773713043790e-02
    51    2.141962684237e-01
    52    3.285348558250e-03
    53   -2.149322192759e-02
    54    2.417428179647e-02
    55   -1.230175406278e-02
    56   -9.702045672107e-03
Sym=X
Ene= 0.194916
Spin=Alpha
Occup=0
     1   -3.439913389578e-03
     2    6.339102869408e-03
     3    3.837013296597e-02
     4    2.339922932123e-01
     5    3.052862486033e-01
     6   -2.139933776744e-01
     7    3.510452306544e-01
     8    4.475707910136e-01
     9   -3.060356008805e-01
    10    8.906870320820e-04
    11    5.009571220687e-03
    12    2.784265775427e-03
    13   -8.208315776782e-03
    14   -9.431012465439e-03
    15    2.892409329875e-03
    16   -5.242699041396e-03
    17   -3.264547622203e-02
    18    2.102658002082e-01
    19   -6.759839089788e-02
    20    3.658471812153e-01
    21    3.163043575493e-01
    22   -9.411192203650e-02
    23    5.344665911533e-01
    24    3.033907364733e-03
    25    1.038014203221e-02
    26   -1.758479444548e-03
    27    7.534940380441e-03
    28    2.774436424277e-03
    29    6.072126859193e-04
    30   -1.131944641210e-03
    31   -6.738467201542e-03
    32   -1.626569219763e-01
    33   -1.269290625635e-01
    34    8.928949803724e-03
    35   -2.297033962294e-01
    36   -1.817807471543e-01
    37    1.667547579154e-02
    38   -9.832929133394e-04
    39   -3.300657172950e-03
    40   -1.381843121698e-04
    41    1.389011747177e-03
    42    3.761923459132e-03
    43   -6.616397929826e-05
    44    6.671767386411e-05
    45    1.038833589521e-03
    46   -2.503858909275e-01
    47   -9.909442485894e-02
    48   -1.477570759189e-01
    49   -3.573156295147e-01
    50   -1.413088104038e-01
    51   -2.120670534540e-01
    52   -1.732351245554e-03
    53   -8.131786934272e-03
    54   -4.766598812509e-04
    55   -5.253787576945e-04
    56    1.274716593990e-03
Sym=X
Ene= 0.196955
Spin=Alpha
Occup=0
     1   -6.222464622112e-04
     2    1.141994522447e-03
     3    6.983499012281e-03
     4    4.136366884409e-02
     5   -1.048730971810e-02
     6   -3.774957978106e-02
     7    6.194787271080e-02
     8   -1.368231288065e-02
     9   -5.375940731742e-02
    10    5.373235386891e-04
    11    4.178178321733e-04
    12    1.125899463622e-03
    13   -7.294401707018e-04
    14   -9.631509202285e-04
    15    4.743579358788e-04
    16   -7.130704504325e-04
    17   -6.144404741652e-03
    18    1.629713349024e-01
    19   -3.504734235894e-01
    20   -1.031825670084e-01
    21    2.400202673224e-01
    22   -5.106487529208e-01
    23   -1.501212712391e-01
    24    6.970928266488e-03
    25   -2.805266523444e-03
    26    7.630329829037e-03
    27    4.740858097285e-03
    28    1.698747261737e-03
    29    4.827550861809e-04
    30   -7.220859190187e-04
    31   -6.319377899866e-03
    32    9.589627737705e-02
    33    3.601832299096e-01
    34   -1.653250881169e-01
    35    1.411610039645e-01
    36    5.293354083049e-01
    37   -2.403484960668e-01
    38   -4.851403739984e-04
    39    3.005212672006e-03
    40   -2.302074895147e-03
    41   -8.951688377744e-03
    42   -8.181017141785e-03
    43   -3.347745301956e-04