Process 0 of 1 is on He - thread support 0
initial socket setup ...start
initial socket setup ...done 
now start server 0 ... 
He 127.0.1
Q-Chem Developer Version! Running on 127.0.1.*
                  Welcome to Q-Chem
     A Quantum Leap Into The Future Of Chemistry


 Q-Chem 4.4, Q-Chem, Inc., Pleasanton, CA (2016)

 Y. Shao,  Z. Gan,  E. Epifanovsky,  A. T. B. Gilbert,  M. Wormit,  
 J. Kussmann,  A. W. Lange,  A. Behn,  J. Deng,  X. Feng,  D. Ghosh,  
 M. Goldey,  P. R. Horn,  L. D. Jacobson,  I. Kaliman,  F.Rob,  
 R. Z. Khaliullin,  T. Kus,  A. Landau,  J. Liu,  E. I. Proynov,  Y. M. Rhee,  
 R. M. Richard,  M. A. Rohrdanz,  R. P. Steele,  E. J. Sundstrom,  
 H. L. Woodcock III,  P. M. Zimmerman,  D. Zuev,  B. Albrecht,  E. Alguire,  
 B. Austin,  S. A. Baeppler,  G. J. O. Beran,  Y. A. Bernard,  E. Berquist,  
 K. Brandhorst,  K. B. Bravaya,  S. T. Brown,  D. Casanova,  C.-M. Chang,  
 Y. Chen,  S. H. Chien,  K. D. Closser,  M. P. Coons,  D. L. Crittenden,  
 S. Dasgupta,  M. Diedenhofen,  R. A. DiStasio Jr.,  H. Do,  A. D. Dutoi,  
 R. G. Edgar,  P.-T. Fang,  S. Fatehi,  Q. Feng,  L. Fusti-Molnar,  
 A. Ghysels,  A. Golubeva-Zadorozhnaya,  J. Gomes,  A. Gunina,  
 M. W. D. Hanson-Heine,  P. H. P. Harbach,  A. W. Hauser,  J. E. Herr,  
 E. G. Hohenstein,  Z. C. Holden,  K. Hui,  T.-C. Jagau,  H. Ji,  B. Kaduk,  
 K. Khistyaev,  Jaehoon Kim,  Jihan Kim,  R. A. King,  P. Klunzinger,  
 K. Koh,  D. Kosenkov,  T. Kowalczyk,  C. M. Krauter,  A. Kunitsa,  
 K. U. Lao,  A. Laurent,  K. V. Lawler,  J. Lee,  D. Lefrancois,  S. Lehtola,  
 S. V. Levchenko,  C. Y. Lin,  Y.-S. Lin,  F. Liu,  E. Livshits,  
 R. C. Lochan,  A. Luenser,  P. Manohar,  S. F. Manzer,  S.-P. Mao,  Y. Mao,  
 N. Mardirossian,  A. V. Marenich,  L. A. Martinez-Martinez,  S. A. Maurer,  
 N. J. Mayhall,  J.-M. Mewes,  A. F. Morrison,  K. Nanda,  T. S. Nguyen-Beck,  
 C. M. Oana,  R. Olivares-Amaya,  D. P. O'Neill,  J. A. Parkhill,  
 T. M. Perrine,  R. Peverati,  P. A. Pieniazek,  F. Plasser,  A. Prociuk,  
 D. R. Rehn,  E. Rosta,  N. J. Russ,  N. Sergueev,  S. M. Sharada,  
 S. Sharma,  D. W. Small,  A. Sodt,  T. Stauch,  T. Stein,  D. Stuck,  
 Y.-C. Su,  A. J. W. Thom,  T. Tsuchimochi,  L. Vogt,  O. Vydrov,  T. Wang,  
 M. A. Watson,  J. Wenzel,  A. White,  C. F. Williams,  V. Vanovschi,  
 K. Yao,  S. Yeganeh,  S. R. Yost,  Z.-Q. You,  I. Y. Zhang,  X. Zhang,  
 Y. Zhao,  B. R. Brooks,  G. K. L. Chan,  D. M. Chipman,  C. J. Cramer,  
 W. A. Goddard III,  M. S. Gordon,  W. J. Hehre,  A. Klamt,  
 H. F. Schaefer III,  M. W. Schmidt,  C. D. Sherrill,  D. G. Truhlar,  
 A. Warshel,  X. Xu,  A. Aspuru-Guzik,  R. Baer,  A. T. Bell,  N. A. Besley,  
 J.-D. Chai,  A. Dreuw,  B. D. Dunietz,  T. R. Furlani,  S. R. Gwaltney,  
 C.-P. Hsu,  Y. Jung,  J. Kong,  D. S. Lambrecht,  W. Liang,  C. Ochsenfeld,  
 V. A. Rassolov,  L. V. Slipchenko,  J. E. Subotnik,  T. Van Voorhis,  
 J. M. Herbert,  A. I. Krylov,  P. M. W. Gill,  M. Head-Gordon

 Contributors to earlier versions of Q-Chem not listed above: 
 R. D. Adamson,  J. Baker,  E. F. C. Byrd,  A. K. Chakraborty,  C.-L. Cheng,  
 H. Dachsel,  R. J. Doerksen,  G. Hawkins,  A. Heyden,  S. Hirata,  
 G. Kedziora,  F. J. Keil,  C. Kelley,  P. P. Korambath,  W. Kurlancheek,  
 A. M. Lee,  M. S. Lee,  D. Liotard,  I. Lotan,  P. E. Maslen,  N. Nair,  
 D. Neuhauser,  R. Olson,  B. Peters,  J. Ritchie,  N. E. Schultz,  
 N. Shenvi,  A. C. Simmonett,  K. S. Thanthiriwatte,  Q. Wu,  W. Zhang

 Please cite Q-Chem as follows:
 Y. Shao et al., Mol. Phys. 113, 184-215 (2015)
 DOI: 10.1080/00268976.2014.952696

 Q-Chem 4.4.1 for Intel X86 EM64T Linux

 Parts of Q-Chem use Armadillo 5.200.1 (Boston Tea Smuggler).
 http://arma.sourceforge.net/

 Q-Chem begins on Wed May 17 05:52:55 2017  


Host: 0

     Scratch files written to /home/vladimir/scratch/qchem19416//
 Parallel job on  1  processors

Checking the input file for inconsistencies... 	...done.

--------------------------------------------------------------
User input:
--------------------------------------------------------------
$comment0
$end

$rem
SYMMETRY              false
SYM_IGNORE            true
BASIS                 cc-pVDZ
METHOD                HF
SCF_CONVERGENCE       8
MOLDEN_FORMAT         true
PRINT_ORBITALS        1000
$end

$molecule
   0 1
   N       0.5200      0.5300      0.5100
   N      -0.5200     -0.5200      0.5200
   N      -0.5200      0.5200     -0.5200
   N       0.5200     -0.5200     -0.5200
$end
--------------------------------------------------------------
 ----------------------------------------------------------------
             Standard Nuclear Orientation (Angstroms)
    I     Atom           X                Y                Z
 ----------------------------------------------------------------
    1      N       0.5200000000     0.5300000000     0.5100000000
    2      N      -0.5200000000    -0.5200000000     0.5200000000
    3      N      -0.5200000000     0.5200000000    -0.5200000000
    4      N       0.5200000000    -0.5200000000    -0.5200000000
 ----------------------------------------------------------------
 Nuclear Repulsion Energy =   105.7779404621 hartrees
 There are       14 alpha and       14 beta electrons
 Requested basis set is cc-pVDZ
 There are 24 shells and 56 basis functions

 Total QAlloc Memory Limit   2000 MB
 Mega-Array Size        61 MB
 MEM_STATIC part        62 MB

                       Distance Matrix (Angstroms)
             N (  1)   N (  2)   N (  3)
   N (  2)  1.477904
   N (  3)  1.463762  1.470782
   N (  4)  1.470850  1.470782  1.470782

 A cutoff of  1.0D-11 yielded    300 shell pairs
 There are      1660 function pairs (      1914 Cartesian)

 -------------------------------------------------------
 OpenMP Integral Computing Module                       
 Release: version 1.0, May 2013, Q-Chem Inc. Pittsburgh 
 -------------------------------------------------------
 Integral Job Info:
 Integral job number is                      11
 Integral operator is                         1
 short-range coefficients                     0
 long-range coefficients              100000000
 Omega coefficients                           0
 if combine SR and LR in K                    0
 Integral screening is                        0
 Integral computing path is                   2
 max size of driver memory is            800000
 size of driver memory is                593474
 size of scratch memory is              3179904
 max col of scratch BK array               1296
 max len of scratch array in speh3          155
 max len of scratch index in speh4           18
 max int batch size is                      520
 min int batch size is                       52
 fixed nKL is                                52
 max L of basis functions is                  2
 order of int derivative is                   0
 number of shells is                         24
 number of basis is                          60
 number of cartesian basis is                60
 number of contracted shell pairs           300
 number of primitive shell pairs           2316
 maxK2 (contraction) of shell pair           49
 max number of K2 of shell pair               1
 max number of CS2 of shell pair             32
 max number of PS2 of shell pair            588
 mem total for path MDJ                   22346
 -------------------------------------------------------
 Smallest overlap matrix eigenvalue = 1.03E-02

 Scale SEOQF with 1.000000e+00/1.000000e+00/1.000000e+00

 Standard Electronic Orientation quadrupole field applied
 Nucleus-field energy     =     0.0000000001 hartrees
 Guess from superposition of atomic densities
 Warning:  Energy on first SCF cycle will be non-variational
 A restricted Hartree-Fock SCF calculation will be
 performed using Pulay DIIS extrapolation
 SCF converges when DIIS error is below 1.0E-08
 using 12 threads for integral computing 
 ---------------------------------------
  Cycle       Energy         DIIS Error
 ---------------------------------------
    1    -218.4843369222      1.15E-01
    2    -217.4473659068      1.65E-02
    3    -217.5224878096      6.04E-03
    4    -217.5349721120      7.87E-04
    5    -217.5356603488      2.01E-04
    6    -217.5357178971      5.05E-05
    7    -217.5357190367      2.28E-05
    8    -217.5357192568      1.92E-06
    9    -217.5357192594      4.17E-07
   10    -217.5357192595      2.64E-07
   11    -217.5357192595      5.02E-08
   12    -217.5357192595      1.18E-08
   13    -217.5357192595      1.81E-09 Convergence criterion met
 ---------------------------------------
 SCF time:  CPU 2.83 s  wall 0.46 s
 SCF   energy in the final basis set = -217.5357192595
 Total energy in the final basis set = -217.5357192595

 --------------------------------------------------------------

                    Orbital Energies (a.u.)
 --------------------------------------------------------------

 Alpha MOs
 -- Occupied --
-15.752 -15.751 -15.751 -15.751  -1.665  -1.050  -1.046  -1.043
 -0.686  -0.571  -0.570  -0.569  -0.537  -0.531
 -- Virtual --
  0.195   0.197   0.199   0.273   0.276   0.279   0.809   0.810
  0.811   0.877   0.926   0.928   0.959   0.960   0.960   1.069
  1.069   1.069   1.108   1.484   1.486   1.488   1.764   1.764
  1.765   1.910   1.916   2.326   2.329   2.336   2.339   2.342
  2.345   2.494   2.625   2.633   2.960   2.962   2.963   3.178
  3.182   3.186
 --------------------------------------------------------------


                        RESTRICTED (RHF) MOLECULAR ORBITAL COEFFICIENTS
                         1         2         3         4         5         6
 eigenvalues:        -15.752   -15.751   -15.751   -15.751    -1.665    -1.050
   1  N 1   s        0.50324  -0.60864  -0.46920  -0.38907  -0.09516   0.11479
   2  N 1   s        0.00829  -0.00926  -0.00712  -0.00590   0.20265  -0.26426
   3  N 1   s       -0.00139   0.00417   0.00322   0.00266   0.12215  -0.33584
   4  N 1   px      -0.00105   0.00092   0.00084   0.00056  -0.07439   0.02601
   5  N 1   py      -0.00106   0.00091   0.00072   0.00072  -0.07438  -0.10099
   6  N 1   pz      -0.00104   0.00105   0.00067   0.00057  -0.07436   0.08720
   7  N 1   px       0.00072  -0.00117  -0.00040  -0.00090  -0.02378   0.02799
   8  N 1   py       0.00072  -0.00124  -0.00090  -0.00022  -0.02394  -0.01206
   9  N 1   pz       0.00072  -0.00067  -0.00106  -0.00082  -0.02363   0.04748
  10  N 1   d 1     -0.00019  -0.00025  -0.00001  -0.00003   0.01445   0.00984
  11  N 1   d 2     -0.00019  -0.00009  -0.00025  -0.00001   0.01445   0.00161
  12  N 1   d 3      0.00001   0.00012  -0.00011  -0.00008  -0.00018  -0.01393
  13  N 1   d 4     -0.00019  -0.00008  -0.00008  -0.00026   0.01445  -0.01504
  14  N 1   d 5      0.00000   0.00001   0.00011  -0.00016  -0.00010  -0.01243
  15  N 2   s        0.50501   0.77794  -0.32412  -0.17301  -0.09452  -0.12299
  16  N 2   s        0.00830   0.01181  -0.00491  -0.00262   0.20136   0.28291
  17  N 2   s       -0.00136  -0.00534   0.00222   0.00120   0.12087   0.35991
  18  N 2   px       0.00105   0.00119  -0.00049  -0.00039   0.07326   0.02997
  19  N 2   py       0.00105   0.00118  -0.00062  -0.00022   0.07374  -0.09496
  20  N 2   pz      -0.00106  -0.00129   0.00043   0.00021  -0.07466  -0.07565
  21  N 2   px      -0.00070  -0.00139   0.00062  -0.00018   0.02338   0.03071
  22  N 2   py      -0.00070  -0.00145   0.00012   0.00049   0.02340  -0.00884
  23  N 2   pz       0.00072   0.00111  -0.00089  -0.00056  -0.02367  -0.04564
  24  N 2   d 1     -0.00018   0.00024   0.00004   0.00005   0.01424  -0.00840
  25  N 2   d 2      0.00019  -0.00016   0.00005   0.00021  -0.01452   0.00242
  26  N 2   d 3      0.00000  -0.00007  -0.00013  -0.00010   0.00013   0.01224
  27  N 2   d 4      0.00019  -0.00014   0.00023  -0.00003  -0.01447  -0.01419
  28  N 2   d 5      0.00000  -0.00001  -0.00011   0.00015  -0.00012   0.01222
  29  N 3   s        0.49134  -0.13306  -0.01186   0.85787  -0.09581   0.06750
  30  N 3   s        0.00813  -0.00203  -0.00018   0.01305   0.20394  -0.15545
  31  N 3   s       -0.00136   0.00091   0.00011  -0.00585   0.12347  -0.19759
  32  N 3   px       0.00104  -0.00032   0.00003   0.00136   0.07550  -0.10124
  33  N 3   py      -0.00103   0.00011  -0.00006  -0.00137  -0.07406  -0.13501
  34  N 3   pz       0.00103  -0.00020  -0.00014   0.00137   0.07500  -0.03862
  35  N 3   px      -0.00072  -0.00021   0.00022  -0.00150   0.02421  -0.04383
  36  N 3   py       0.00071  -0.00062  -0.00031   0.00137  -0.02390  -0.03119
  37  N 3   pz      -0.00072   0.00028  -0.00045  -0.00143   0.02418  -0.02388
  38  N 3   d 1      0.00019   0.00001   0.00018  -0.00020  -0.01443  -0.00461
  39  N 3   d 2      0.00019   0.00019  -0.00006  -0.00018  -0.01438  -0.01278
  40  N 3   d 3      0.00000  -0.00002   0.00019   0.00001  -0.00004  -0.00608
  41  N 3   d 4     -0.00019   0.00011   0.00010   0.00024   0.01466  -0.01862
  42  N 3   d 5     -0.00000   0.00019   0.00002   0.00004   0.00018  -0.02300
  43  N 4   s        0.49562  -0.04277   0.81843  -0.27913  -0.09515  -0.06034
  44  N 4   s        0.00818  -0.00065   0.01244  -0.00424   0.20263   0.13876
  45  N 4   s       -0.00134   0.00028  -0.00559   0.00194   0.12216   0.17684
  46  N 4   px      -0.00104  -0.00002  -0.00133   0.00037  -0.07437  -0.09458
  47  N 4   py       0.00104  -0.00018   0.00131  -0.00040   0.07486  -0.13817
  48  N 4   pz       0.00103  -0.00005   0.00125  -0.00055   0.07387   0.04936
  49  N 4   px       0.00071  -0.00044   0.00125  -0.00076  -0.02379  -0.04059
  50  N 4   py      -0.00070  -0.00039  -0.00135   0.00063   0.02381  -0.03328
  51  N 4   pz      -0.00070   0.00016  -0.00152   0.00002   0.02376   0.02619
  52  N 4   d 1      0.00019  -0.00002  -0.00014   0.00023  -0.01450   0.00564
  53  N 4   d 2     -0.00019   0.00012   0.00024   0.00003   0.01445  -0.01168
  54  N 4   d 3      0.00000  -0.00004   0.00006   0.00017  -0.00021   0.00809
  55  N 4   d 4      0.00019   0.00017  -0.00020   0.00001  -0.01440  -0.01915
  56  N 4   d 5      0.00000  -0.00019  -0.00002  -0.00003  -0.00012   0.02287
                         7         8         9        10        11        12
 eigenvalues:         -1.046    -1.043    -0.686    -0.571    -0.570    -0.569
   1  N 1   s       -0.03210   0.11449  -0.04695  -0.04660  -0.04946  -0.04550
   2  N 1   s        0.07387  -0.26344   0.09758   0.12213   0.12982   0.11967
   3  N 1   s        0.09442  -0.33852   0.21920   0.15277   0.16161   0.14810
   4  N 1   px       0.15018   0.02098   0.16506   0.02791   0.29616   0.01371
   5  N 1   py      -0.07644   0.08473   0.16744   0.02712   0.03388   0.29246
   6  N 1   pz      -0.07573  -0.10368   0.16269   0.29539   0.03694   0.02685
   7  N 1   px       0.04246   0.02694   0.08671   0.03940   0.18875   0.03146
   8  N 1   py      -0.02994   0.04742   0.08819   0.03923   0.04465   0.18523
   9  N 1   pz      -0.02993  -0.01353   0.08525   0.18625   0.04577   0.03843
  10  N 1   d 1     -0.00980  -0.01459  -0.02202   0.00364  -0.00762  -0.00709
  11  N 1   d 2      0.02025   0.00210  -0.02163  -0.00795   0.00323  -0.00790
  12  N 1   d 3      0.01255   0.01766   0.00048  -0.02600   0.01300   0.01251
  13  N 1   d 4     -0.00965   0.01042  -0.02124  -0.00827  -0.00832   0.00388
  14  N 1   d 5     -0.02219   0.00634   0.00028   0.00028  -0.02166   0.02323
  15  N 2   s        0.08735   0.06831  -0.04696   0.07914  -0.01546  -0.01536
  16  N 2   s       -0.20102  -0.15712   0.09754  -0.20771   0.04055   0.04046
  17  N 2   s       -0.25667  -0.20186   0.21980  -0.25905   0.05065   0.04986
  18  N 2   px       0.11264  -0.09955  -0.16339   0.16040   0.01378  -0.24476
  19  N 2   py      -0.11266  -0.03714  -0.16422   0.17041  -0.23558   0.02695
  20  N 2   pz       0.00523  -0.13316   0.16416  -0.25428  -0.11070  -0.10302
  21  N 2   px       0.02093  -0.04404  -0.08566   0.12859  -0.00058  -0.14286
  22  N 2   py      -0.05114  -0.02399  -0.08589   0.13486  -0.13670   0.00642
  23  N 2   pz       0.01697  -0.03097   0.08584  -0.18062  -0.05282  -0.04886
  24  N 2   d 1     -0.00027  -0.01839  -0.02155   0.00431  -0.00713  -0.00733
  25  N 2   d 2      0.01593  -0.01234   0.02157  -0.00853   0.00357  -0.00724
  26  N 2   d 3     -0.00050   0.02283  -0.00010   0.00837   0.02219   0.02077
  27  N 2   d 4     -0.01402  -0.00395   0.02146  -0.00776  -0.00680   0.00429
  28  N 2   d 5      0.02194  -0.00597   0.00009  -0.00055   0.02129  -0.02289
  29  N 3   s        0.08690  -0.12288  -0.04692  -0.01538  -0.01297   0.07897
  30  N 3   s       -0.20003   0.28296   0.09759   0.04022   0.03407  -0.20736
  31  N 3   s       -0.25585   0.36323   0.21852   0.05057   0.04225  -0.25745
  32  N 3   px       0.11305   0.02826  -0.16676  -0.24892   0.02199   0.16852
  33  N 3   py       0.00440  -0.07487   0.16593  -0.11038  -0.12544  -0.24773
  34  N 3   pz      -0.11422  -0.09847  -0.16594   0.02528  -0.24720   0.17188
  35  N 3   px       0.02096   0.03070  -0.08780  -0.14481   0.00539   0.13477
  36  N 3   py       0.01643  -0.04529   0.08759  -0.05258  -0.06236  -0.17797
  37  N 3   pz      -0.05178  -0.01028  -0.08759   0.00629  -0.14371   0.13590
  38  N 3   d 1     -0.01413  -0.01414   0.02181   0.00380  -0.00838  -0.00785
  39  N 3   d 2      0.01588   0.00259   0.02170  -0.00800   0.00333  -0.00768
  40  N 3   d 3     -0.01898  -0.01685   0.00002   0.00926  -0.03054  -0.00343
  41  N 3   d 4     -0.00037  -0.00884  -0.02173  -0.00770  -0.00844   0.00451
  42  N 3   d 5      0.01156  -0.00452  -0.00014  -0.02995  -0.00818  -0.00704
  43  N 4   s       -0.14216  -0.05888  -0.04695  -0.01691   0.07788  -0.01836
  44  N 4   s        0.32718   0.13563   0.09757   0.04422  -0.20445   0.04837
  45  N 4   s        0.41812   0.17378   0.21919   0.05570  -0.25443   0.05948
  46  N 4   px       0.07548  -0.09496   0.16504  -0.10247  -0.25851  -0.10348
  47  N 4   py       0.04314   0.04793  -0.16589  -0.24344   0.16874   0.01250
  48  N 4   pz       0.04118  -0.14119  -0.16425   0.01988   0.15044  -0.25662
  49  N 4   px      -0.00059  -0.04080   0.08671  -0.04736  -0.18276  -0.04759
  50  N 4   py       0.03863   0.02568  -0.08694  -0.14164   0.13420  -0.00305
  51  N 4   pz       0.03782  -0.03536  -0.08651   0.00244   0.12257  -0.15189
  52  N 4   d 1      0.00398  -0.01918   0.02174   0.00393  -0.00879  -0.00744
  53  N 4   d 2      0.01156  -0.01211  -0.02164  -0.00708   0.00388  -0.00847
  54  N 4   d 3      0.00635  -0.02378   0.00015   0.00875  -0.00564  -0.03010
  55  N 4   d 4      0.00407   0.00594   0.02152  -0.00717  -0.00734   0.00419
  56  N 4   d 5     -0.01164   0.00458   0.00009   0.02961   0.00787   0.00735
                        13        14        15        16        17        18
 eigenvalues:         -0.537    -0.531     0.195     0.197     0.199     0.273
   1  N 1   s        0.00103   0.00087  -0.00344   0.00062  -0.00339   0.08397
   2  N 1   s       -0.00326  -0.00287   0.00634  -0.00114   0.00620  -0.14329
   3  N 1   s       -0.00221  -0.00171   0.03837  -0.00698   0.03826  -1.09150
   4  N 1   px       0.18584  -0.19188  -0.25689  -0.00718   0.24966   0.17360
   5  N 1   py      -0.25635  -0.07152  -0.10701   0.04522  -0.34710   0.21598
   6  N 1   pz       0.06655   0.26081   0.34103  -0.03390   0.07487   0.11338
   7  N 1   px       0.12395  -0.13069  -0.38303  -0.00797   0.35806   0.51005
   8  N 1   py      -0.17265  -0.04912  -0.16347   0.06666  -0.51348   0.69733
   9  N 1   pz       0.04394   0.17611   0.49374  -0.04908   0.10274   0.21413
  10  N 1   d 1      0.00731   0.02781  -0.01024   0.00123  -0.00180  -0.00055
  11  N 1   d 2      0.02017  -0.02031   0.00833  -0.00040  -0.00704  -0.01538
  12  N 1   d 3     -0.00254  -0.00981  -0.00138   0.00035  -0.00027  -0.00499
  13  N 1   d 4     -0.02744  -0.00751   0.00370  -0.00115   0.01057  -0.02365
  14  N 1   d 5     -0.00952   0.00260   0.00032  -0.00026  -0.00125  -0.00221
  15  N 2   s       -0.00070   0.00048   0.00289  -0.00047   0.00073  -0.10559
  16  N 2   s        0.00166  -0.00172  -0.00524   0.00071  -0.00141   0.17949
  17  N 2   s        0.00261  -0.00064  -0.03265   0.00614  -0.00781   1.37457
  18  N 2   px      -0.19456   0.19206  -0.18019  -0.26207  -0.17650   0.20335
  19  N 2   py       0.26138   0.07497  -0.18604   0.30033   0.08590   0.24960
  20  N 2   pz       0.07348   0.26212  -0.33992   0.03400  -0.08427  -0.18602
  21  N 2   px      -0.13042   0.13035  -0.27074  -0.38071  -0.26611   0.57983
  22  N 2   py       0.17485   0.05120  -0.27818   0.43991   0.12458   0.77214
  23  N 2   pz       0.04936   0.17690  -0.49384   0.04950  -0.12842  -0.45480
  24  N 2   d 1      0.00747   0.02794   0.01061  -0.00110   0.00312   0.00847
  25  N 2   d 2     -0.02032   0.02001   0.00599   0.00763   0.00617  -0.01593
  26  N 2   d 3     -0.00310  -0.01051   0.00098  -0.00012   0.00000   0.00345
  27  N 2   d 4      0.02785   0.00725   0.00593  -0.00893  -0.00271  -0.02449
  28  N 2   d 5     -0.01045   0.00224   0.00005  -0.00099  -0.00061   0.00201
  29  N 3   s        0.00055  -0.00066   0.00061  -0.00048   0.00270   0.03702
  30  N 3   s       -0.00191   0.00153  -0.00113   0.00072  -0.00484  -0.06332
  31  N 3   s       -0.00087   0.00248  -0.00674   0.00632  -0.03104  -0.48102
  32  N 3   px      -0.18623   0.18431   0.16619   0.26543   0.16298   0.01244
  33  N 3   py      -0.25466  -0.06562   0.09675  -0.04519   0.34721   0.16411
  34  N 3   pz      -0.06274  -0.25607  -0.07528  -0.30621   0.15966  -0.06984
  35  N 3   px      -0.12465   0.12494   0.23510   0.39125   0.23125   0.13951
  36  N 3   py      -0.17157  -0.04436   0.13596  -0.06644   0.51106   0.57198
  37  N 3   pz      -0.04169  -0.17386  -0.11104  -0.44766   0.22769  -0.19654
  38  N 3   d 1     -0.00754  -0.02747   0.00213   0.00941  -0.00453   0.00524
  39  N 3   d 2     -0.02046   0.02016  -0.00417  -0.00832  -0.00443  -0.01030
  40  N 3   d 3     -0.00179  -0.00885  -0.00008  -0.00135   0.00075  -0.00011
  41  N 3   d 4     -0.02731  -0.00734  -0.00231   0.00129  -0.01016  -0.02223
  42  N 3   d 5     -0.00909   0.00263   0.00085   0.00057   0.00141  -0.00768
  43  N 4   s       -0.00122  -0.00102  -0.00007   0.00033  -0.00003  -0.01507
  44  N 4   s        0.00312   0.00260   0.00007  -0.00029   0.00001   0.02550
  45  N 4   s        0.00408   0.00346   0.00104  -0.00548   0.00057   0.19707
  46  N 4   px       0.19490  -0.18446   0.24333   0.01116  -0.26281   0.04082
  47  N 4   py       0.25820   0.06426   0.17386  -0.29915  -0.09169   0.13027
  48  N 4   pz      -0.07486  -0.25860   0.07006   0.30730  -0.17083   0.00081
  49  N 4   px       0.13113  -0.12461   0.34765   0.01880  -0.39280   0.20392
  50  N 4   py       0.17278   0.04319   0.24805  -0.43829  -0.13605   0.49531
  51  N 4   pz      -0.05061  -0.17548   0.10112   0.44920  -0.25595  -0.03432
  52  N 4   d 1     -0.00718  -0.02746  -0.00214  -0.00936   0.00586   0.00296
  53  N 4   d 2      0.02033  -0.02012  -0.00667  -0.00048   0.00862  -0.01105
  54  N 4   d 3     -0.00305  -0.00888   0.00039   0.00109  -0.00049   0.00236
  55  N 4   d 4      0.02786   0.00762  -0.00455   0.00900   0.00275  -0.02115
  56  N 4   d 5     -0.01040   0.00265  -0.00119   0.00075   0.00049   0.00753
                        19        20        21        22        23        24
 eigenvalues:          0.276     0.279     0.809     0.810     0.811     0.877
   1  N 1   s        0.02199   0.08634  -0.03233  -0.01045  -0.03083   0.03593
   2  N 1   s       -0.03714  -0.14448  -0.13390  -0.04541  -0.14114  -0.37243
   3  N 1   s       -0.28929  -1.14943   1.31538   0.44230   1.36143   0.47909
   4  N 1   px      -0.05035   0.19074   0.26244   0.31888   0.27034  -0.22141
   5  N 1   py       0.09359   0.09736   0.45902  -0.00322   0.18670  -0.21933
   6  N 1   pz       0.08852   0.22882   0.17957  -0.01551   0.45753  -0.22353
   7  N 1   px      -0.28187   0.57017  -0.63192  -0.64133  -0.65513   0.26435
   8  N 1   py       0.33252   0.20072  -1.00317  -0.04125  -0.49923   0.26025
   9  N 1   pz       0.32702   0.73219  -0.47882  -0.02237  -0.99659   0.26838
  10  N 1   d 1     -0.01332  -0.02377   0.06662   0.04513  -0.01195   0.03288
  11  N 1   d 2      0.01563  -0.01573   0.04346  -0.05541   0.04548   0.03135
  12  N 1   d 3      0.00371   0.00435  -0.02355  -0.02069   0.02945  -0.00117
  13  N 1   d 4     -0.01245   0.00040  -0.01561   0.04343   0.07288   0.02980
  14  N 1   d 5     -0.00690   0.00417  -0.02484   0.03894   0.01145  -0.00074
  15  N 2   s        0.05119   0.03306   0.03337   0.02531  -0.01812   0.03608
  16  N 2   s       -0.08636  -0.05509   0.14419   0.10868  -0.08356  -0.37150
  17  N 2   s       -0.67308  -0.44086  -1.40206  -1.06417   0.80611   0.46422
  18  N 2   px      -0.15624   0.00523   0.26862   0.40805  -0.03576   0.22153
  19  N 2   py      -0.01418  -0.06648   0.46703   0.08475  -0.12135   0.22590
  20  N 2   pz       0.13837   0.13725  -0.21331  -0.23354   0.38000  -0.22798
  21  N 2   px      -0.52594   0.14019  -0.65470  -0.87548   0.15714  -0.26623
  22  N 2   py       0.08279  -0.18930  -1.02655  -0.27467   0.31651  -0.27168
  23  N 2   pz       0.43881   0.52543   0.55526   0.55217  -0.79182   0.27553
  24  N 2   d 1     -0.01444  -0.02096  -0.06613  -0.02935  -0.03949   0.03125
  25  N 2   d 2      0.01854  -0.01060   0.05018  -0.02353  -0.06434  -0.03026
  26  N 2   d 3      0.00255   0.00664   0.02038   0.00190   0.03947  -0.00009
  27  N 2   d 4     -0.00950   0.00482  -0.00918   0.07490  -0.03762  -0.03075
  28  N 2   d 5      0.00685  -0.00366   0.02413  -0.03809  -0.01019   0.00007
  29  N 3   s        0.04778  -0.10723  -0.02073   0.02373   0.03367   0.03578
  30  N 3   s       -0.08086   0.18007  -0.08583   0.10500   0.14779  -0.37347
  31  N 3   s       -0.62847   1.42570   0.84149  -1.01519  -1.43943   0.49522
  32  N 3   px      -0.15103   0.22184  -0.05563   0.40187   0.28800   0.22093
  33  N 3   py       0.12331  -0.15640   0.38778  -0.21310  -0.21703  -0.21467
  34  N 3   pz      -0.00966   0.25680  -0.13643   0.06881   0.47324   0.21654
  35  N 3   px      -0.51430   0.64124   0.19577  -0.85997  -0.69496  -0.26162
  36  N 3   py       0.40414  -0.40602  -0.81744   0.50851   0.55989   0.25263
  37  N 3   pz       0.10150   0.79948   0.34560  -0.24176  -1.03567  -0.25626
  38  N 3   d 1     -0.01023  -0.02477  -0.03835   0.07329  -0.01038  -0.03200
  39  N 3   d 2      0.01878  -0.01697  -0.06227  -0.02775   0.04690  -0.03246
  40  N 3   d 3     -0.00721  -0.00332  -0.01215   0.03176  -0.02896  -0.00001
  41  N 3   d 4     -0.01369   0.00771  -0.03946  -0.02980  -0.06936   0.03158
  42  N 3   d 5      0.00097  -0.00200  -0.03950  -0.02161  -0.00915  -0.00007
  43  N 4   s       -0.12096  -0.01251   0.01779  -0.03862   0.01720   0.03594
  44  N 4   s        0.20440   0.02111   0.07993  -0.16820   0.07240  -0.37245
  45  N 4   s        1.59085   0.16540  -0.76732   1.63689  -0.71537   0.47934
  46  N 4   px      -0.25688   0.03767  -0.03882   0.49125  -0.02886  -0.22139
  47  N 4   py       0.23103   0.00331   0.37566  -0.30518   0.09774   0.22569
  48  N 4   pz       0.23667   0.10930   0.09623  -0.31383   0.36843   0.21694
  49  N 4   px      -0.75820   0.21655   0.15836  -1.09438   0.13210   0.26428
  50  N 4   py       0.65155  -0.02718  -0.78732   0.75006  -0.26013  -0.26957
  51  N 4   pz       0.66676   0.45978  -0.26488   0.76350  -0.75965  -0.25876
  52  N 4   d 1     -0.01759  -0.02023   0.04130  -0.05816  -0.04522  -0.03089
  53  N 4   d 2      0.02169  -0.01164  -0.05924   0.00409  -0.05911   0.03140
  54  N 4   d 3      0.00023  -0.00760   0.01572  -0.01195  -0.04042   0.00009
  55  N 4   d 4     -0.01659   0.00299  -0.04202  -0.06052   0.03873  -0.03184
  56  N 4   d 5     -0.00132   0.00227   0.03951   0.02132   0.00856   0.00003
                        25        26        27        28        29        30
 eigenvalues:          0.926     0.928     0.959     0.960     0.960     1.069
   1  N 1   s       -0.00073  -0.00073   0.02390   0.01513   0.02394  -0.00016
   2  N 1   s        0.00411   0.00425  -0.19354  -0.12428  -0.19950   0.00342
   3  N 1   s       -0.00428  -0.00429   0.13644   0.08591   0.13550  -0.01872
   4  N 1   px       0.26883  -0.25936   0.03690  -0.45299   0.02609   0.34578
   5  N 1   py      -0.36541  -0.09145   0.10453   0.13335  -0.41792   0.10824
   6  N 1   pz       0.10210   0.35629  -0.42143   0.14273   0.11281  -0.45768
   7  N 1   px      -0.34024   0.32446   0.15464   0.50390   0.17198  -0.82709
   8  N 1   py       0.45194   0.11149   0.10034   0.00999   0.54357  -0.25716
   9  N 1   pz      -0.13195  -0.45624   0.54705  -0.00368   0.09551   1.09911
  10  N 1   d 1      0.01473   0.05317  -0.01939   0.03534   0.04211   0.02991
  11  N 1   d 2      0.03931  -0.03930   0.03366  -0.03332   0.03125  -0.02415
  12  N 1   d 3     -0.01179  -0.03938   0.05265  -0.03377  -0.03417  -0.02393
  13  N 1   d 4     -0.05428  -0.01411   0.04041   0.03257  -0.01843  -0.00800
  14  N 1   d 5     -0.04307   0.01078   0.00540   0.05390  -0.04122   0.00720
  15  N 2   s        0.00035  -0.00045  -0.03461   0.01069   0.00830   0.00016
  16  N 2   s       -0.00206   0.00263   0.28232  -0.08783  -0.06965  -0.00273
  17  N 2   s        0.00202  -0.00270  -0.19550   0.05481   0.04674   0.01503
  18  N 2   px      -0.26059   0.26399  -0.09992  -0.13803   0.42954   0.11940
  19  N 2   py       0.35307   0.09100  -0.01330   0.46145  -0.02217   0.34045
  20  N 2   pz       0.09154   0.35244   0.29159   0.19286   0.30361   0.45391
  21  N 2   px       0.32563  -0.32976   0.35759   0.02978  -0.43371  -0.28450
  22  N 2   py      -0.44888  -0.11439   0.28064  -0.47816  -0.04843  -0.81340
  23  N 2   pz      -0.11524  -0.44904  -0.52771  -0.07821  -0.19384  -1.08814
  24  N 2   d 1      0.01521   0.05339  -0.00960   0.03539   0.04567  -0.02983
  25  N 2   d 2     -0.04013   0.03840   0.03120  -0.02902   0.03752  -0.00790
  26  N 2   d 3     -0.01080  -0.04073  -0.02395  -0.03852  -0.05466   0.02430
  27  N 2   d 4      0.05223   0.01263   0.04114   0.03951  -0.01389  -0.02278
  28  N 2   d 5     -0.04162   0.01123  -0.00658  -0.05470   0.04032   0.00689
  29  N 3   s       -0.00044   0.00033   0.00845   0.01112  -0.03424   0.00003
  30  N 3   s        0.00240  -0.00202  -0.06789  -0.09140   0.28336  -0.00065
  31  N 3   s       -0.00244   0.00212   0.04820   0.06923  -0.19561   0.00363
  32  N 3   px      -0.26470   0.26801   0.41673  -0.13561  -0.09201  -0.12286
  33  N 3   py      -0.36936  -0.10172   0.29069   0.18566   0.28397  -0.11228
  34  N 3   pz      -0.10200  -0.36921  -0.03364   0.44568  -0.02393   0.01202
  35  N 3   px       0.33533  -0.33934  -0.41612   0.02858   0.35178   0.29222
  36  N 3   py       0.45934   0.12772  -0.17632  -0.06919  -0.50618   0.26664
  37  N 3   pz       0.12859   0.45994  -0.03745  -0.46310   0.29752  -0.02785
  38  N 3   d 1     -0.01617  -0.05522  -0.01272   0.03737   0.03761  -0.00040
  39  N 3   d 2     -0.04038   0.03860   0.03849  -0.02844   0.02994   0.00795
  40  N 3   d 3     -0.01139  -0.04129  -0.01199   0.06614   0.01968  -0.00085
  41  N 3   d 4     -0.05399  -0.01358   0.04213   0.03407  -0.00788   0.00774
  42  N 3   d 5     -0.04172   0.01073   0.06680   0.00375   0.01834   0.00697
  43  N 4   s        0.00061   0.00064   0.00224  -0.03694   0.00200  -0.00003
  44  N 4   s       -0.00362  -0.00382  -0.01735   0.30351  -0.01741   0.00006
  45  N 4   s        0.00379   0.00378   0.00638  -0.20995   0.01758   0.00003
  46  N 4   px       0.25621  -0.27236   0.29501   0.17845   0.29674  -0.35002
  47  N 4   py       0.35481   0.09471   0.42871  -0.11562  -0.10077  -0.34172
  48  N 4   pz      -0.09873  -0.36684  -0.10698  -0.13785   0.42029  -0.00838
  49  N 4   px      -0.32073   0.34465  -0.23040  -0.44439  -0.23710   0.83575
  50  N 4   py      -0.45344  -0.12251  -0.38112   0.38760   0.07095   0.81695
  51  N 4   pz       0.12117   0.45451   0.07117   0.41379  -0.37154   0.01947
  52  N 4   d 1     -0.01562  -0.05518  -0.01404   0.02887   0.04428   0.00073
  53  N 4   d 2      0.03993  -0.03874   0.03572  -0.02420   0.03673   0.02364
  54  N 4   d 3     -0.01178  -0.04131  -0.01902   0.00349   0.06619   0.00008
  55  N 4   d 4      0.05224   0.01315   0.04718   0.03139  -0.01476   0.02297
  56  N 4   d 5     -0.04097   0.01184  -0.06781  -0.00445  -0.01836  -0.02104
                        31        32        33        34        35        36
 eigenvalues:          1.069     1.069     1.108     1.484     1.486     1.488
   1  N 1   s        0.00005  -0.00017   0.00940   0.01770   0.02268   0.01750
   2  N 1   s       -0.00111   0.00355   0.54202   0.36467   0.47105   0.36600
   3  N 1   s        0.00615  -0.01979  -0.27527  -0.93614  -1.22432  -0.96234
   4  N 1   px      -0.01527  -0.34094  -0.05052   0.01031   0.02426   0.01149
   5  N 1   py      -0.08444   0.46588  -0.04757   0.01212   0.01706   0.01911
   6  N 1   pz       0.10091  -0.12878  -0.05337   0.02267   0.01469   0.01138
   7  N 1   px       0.03475   0.82145   0.15495   0.32046   0.18098   0.32750
   8  N 1   py       0.20257  -1.11740   0.15062   0.30213   0.36891   0.09493
   9  N 1   pz      -0.24218   0.31158   0.15898   0.08874   0.38099   0.30958
  10  N 1   d 1     -0.00624   0.00809   0.16549   0.17365   0.00611  -0.01222
  11  N 1   d 2      0.00058   0.02273   0.16330  -0.01763   0.16959  -0.03518
  12  N 1   d 3      0.00554  -0.00700  -0.00460   0.37336  -0.17148  -0.16362
  13  N 1   d 4      0.00640  -0.03327   0.16121  -0.00993  -0.00062   0.17356
  14  N 1   d 5      0.00194  -0.02585  -0.00273  -0.02281   0.27801  -0.34237
  15  N 2   s        0.00001   0.00003   0.00916  -0.03273   0.00527   0.00591
  16  N 2   s        0.00058  -0.00078   0.54860  -0.68421   0.11662   0.12317
  17  N 2   s       -0.00346   0.00425  -0.28938   1.76940  -0.30439  -0.32640
  18  N 2   px      -0.44930   0.14006   0.05047   0.02559  -0.00259  -0.01123
  19  N 2   py       0.34863  -0.01405   0.05129   0.02562  -0.01025  -0.00294
  20  N 2   pz      -0.09953   0.12444  -0.05446  -0.02891  -0.00293   0.00057
  21  N 2   px       1.07634  -0.33880  -0.15412   0.47323  -0.10329   0.08532
  22  N 2   py      -0.83587   0.03477  -0.15515   0.45305   0.08632  -0.14308
  23  N 2   pz       0.23934  -0.30166   0.16142  -0.41922   0.20979   0.18943
  24  N 2   d 1      0.00656  -0.00840   0.16207  -0.11869  -0.10489  -0.07328
  25  N 2   d 2      0.03043  -0.00997  -0.16302   0.06057   0.01215  -0.16258
  26  N 2   d 3     -0.00536   0.00716   0.00057  -0.09923  -0.33633  -0.26748
  27  N 2   d 4     -0.02380   0.00140  -0.16368   0.07268  -0.15156   0.04206
  28  N 2   d 5      0.02470  -0.00479   0.00008   0.02151  -0.27737   0.34433
  29  N 3   s        0.00001   0.00017   0.00967   0.00608   0.00305  -0.03297
  30  N 3   s        0.00051  -0.00284   0.53501   0.12556   0.05647  -0.67948
  31  N 3   s       -0.00303   0.01532  -0.26013  -0.32001  -0.14492   1.77361
  32  N 3   px       0.44784  -0.14365   0.05030  -0.01334  -0.00159   0.02621
  33  N 3   py       0.08575  -0.46983  -0.04657   0.00009  -0.00163  -0.02843
  34  N 3   pz      -0.36313  -0.32016   0.04955  -0.00161  -0.01061   0.02773
  35  N 3   px      -1.07700   0.34687  -0.15529   0.09113  -0.07184   0.47938
  36  N 3   py      -0.20527   1.12907   0.14833   0.19063   0.17008  -0.40516
  37  N 3   pz       0.87264   0.77204  -0.15428  -0.14498   0.12682   0.46357
  38  N 3   d 1      0.02484   0.02243  -0.16306   0.03383  -0.15097   0.08075
  39  N 3   d 2     -0.03086   0.01012  -0.16374  -0.16127   0.01920   0.06196
  40  N 3   d 3      0.01972   0.01748   0.00027  -0.14902   0.41654   0.01615
  41  N 3   d 4     -0.00606   0.03327   0.16479  -0.08167  -0.10184  -0.11390
  42  N 3   d 5     -0.01671   0.01936   0.00048   0.40750   0.14503   0.08960
  43  N 4   s       -0.00007  -0.00003   0.00941   0.00940  -0.03103   0.00910
  44  N 4   s        0.00002  -0.00004   0.54186   0.20114  -0.64434   0.18298
  45  N 4   s        0.00034   0.00027  -0.27494  -0.51654   1.67371  -0.48151
  46  N 4   px       0.01654   0.33652  -0.05047   0.00118  -0.02846   0.00424
  47  N 4   py      -0.34758   0.01754   0.05125  -0.01463   0.02354  -0.00643
  48  N 4   pz       0.36393   0.31889   0.04968  -0.00450   0.02461  -0.01475
  49  N 4   px      -0.03875  -0.81236   0.15477   0.24508  -0.35606   0.23600
  50  N 4   py       0.83542  -0.04284  -0.15585   0.03750   0.45078  -0.17100
  51  N 4   pz      -0.87251  -0.76871  -0.15381  -0.18198   0.46555   0.03776
  52  N 4   d 1     -0.02473  -0.02215  -0.16272   0.01742   0.04900  -0.16663
  53  N 4   d 2     -0.00099  -0.02328   0.16342  -0.08090  -0.13845  -0.06756
  54  N 4   d 3     -0.01950  -0.01746   0.00007  -0.12276   0.09238   0.41644
  55  N 4   d 4      0.02391  -0.00104  -0.16407  -0.16370   0.05246   0.02121
  56  N 4   d 5     -0.01056   0.01164   0.00003  -0.40580  -0.14506  -0.08972
                        37        38        39        40        41        42
 eigenvalues:          1.764     1.764     1.765     1.910     1.916     2.326
   1  N 1   s       -0.02753  -0.05912  -0.01809   0.00138   0.00139   0.00148
   2  N 1   s       -0.71631  -1.48730  -0.43504   0.02369   0.02250   0.00265
   3  N 1   s        1.77444   3.65931   1.05861  -0.07356  -0.07041  -0.03907
   4  N 1   px       0.14118  -0.01937   0.13536   0.09951  -0.10375   0.01798
   5  N 1   py       0.09428   0.09268  -0.14724   0.03754   0.14376   0.01283
   6  N 1   pz      -0.13339   0.12666   0.06550  -0.13411  -0.03660  -0.01575
   7  N 1   px      -0.21930  -1.12398   0.01866  -0.01828   0.04332  -0.05006
   8  N 1   py      -0.32604  -0.88033  -0.67068   0.00407  -0.02032  -0.01248
   9  N 1   pz      -0.81259  -0.77976  -0.14641   0.06594   0.02604   0.08647
  10  N 1   d 1     -0.06329  -0.03983  -0.00177   0.35540   0.09386   0.19807
  11  N 1   d 2     -0.00320  -0.08321   0.01986  -0.25569   0.25702  -0.29185
  12  N 1   d 3     -0.19460   0.07737   0.05620  -0.02198  -0.00935   0.12773
  13  N 1   d 4     -0.01512  -0.05676  -0.07532  -0.09371  -0.34476   0.10205
  14  N 1   d 5      0.03418  -0.07130   0.18678   0.00577  -0.03520  -0.33790
  15  N 2   s       -0.04633   0.04256   0.02383   0.00078  -0.00092   0.01815
  16  N 2   s       -1.18856   1.06425   0.59487   0.01175  -0.02204   0.06327
  17  N 2   s        2.91818  -2.60212  -1.45871  -0.04291   0.04344  -0.41158
  18  N 2   px      -0.09851  -0.06954   0.15985  -0.10152   0.09929  -0.03892
  19  N 2   py      -0.14611   0.03544  -0.13268  -0.03749  -0.13935  -0.06082
  20  N 2   pz      -0.07379  -0.17566  -0.05269  -0.13219  -0.03142   0.03640
  21  N 2   px       0.65424  -0.92306  -0.06079   0.02536  -0.02342  -0.10106
  22  N 2   py       0.54353  -0.68194  -0.73960   0.00885   0.06620  -0.03768
  23  N 2   pz      -1.02868   0.38251   0.31338   0.06166   0.00488   0.12431
  24  N 2   d 1     -0.07223   0.01291   0.01707   0.35795   0.09637  -0.01416
  25  N 2   d 2      0.03963  -0.07682   0.00843   0.25375  -0.25831   0.13446
  26  N 2   d 3     -0.15185  -0.14964  -0.02942  -0.02685  -0.00372  -0.17738
  27  N 2   d 4      0.02565  -0.04337  -0.06293   0.09265   0.35382  -0.24937
  28  N 2   d 5     -0.03175   0.07260  -0.18979   0.00628  -0.02472  -0.49964
  29  N 3   s        0.02905   0.02682  -0.05545  -0.00096   0.00074  -0.00442
  30  N 3   s        0.74131   0.68769  -1.38131  -0.02345   0.00987  -0.02214
  31  N 3   s       -1.83444  -1.70870   3.41134   0.04744  -0.03811   0.10167
  32  N 3   px       0.13881  -0.11266  -0.07146  -0.10463   0.10172   0.02683
  33  N 3   py      -0.08620  -0.17074  -0.03607   0.04339   0.14579  -0.00853
  34  N 3   pz      -0.12410   0.03831  -0.14182   0.13894   0.03654  -0.01022
  35  N 3   px      -0.22582  -0.77572   0.82890   0.03989  -0.03564  -0.04702
  36  N 3   py       0.33641   0.09312  -1.09429  -0.01828  -0.02482  -0.02144
  37  N 3   pz      -0.82904  -0.42609   0.66714  -0.01737  -0.01288   0.09519
  38  N 3   d 1     -0.08141  -0.02797   0.02945  -0.34625  -0.09476   0.16831
  39  N 3   d 2      0.00563  -0.06934   0.04848   0.25417  -0.25880  -0.27245
  40  N 3   d 3      0.18942  -0.00653   0.09602  -0.03497  -0.00718  -0.08096
  41  N 3   d 4      0.01282  -0.01988  -0.09246  -0.09122  -0.34210  -0.12568
  42  N 3   d 5     -0.03776   0.18911   0.07216   0.00662  -0.03069   0.29571
  43  N 4   s        0.04574  -0.01044   0.04876  -0.00159  -0.00154  -0.01568
  44  N 4   s        1.16169  -0.26493   1.22201  -0.03589  -0.03416  -0.06493
  45  N 4   s       -2.85750   0.65164  -3.01135   0.07886   0.07488   0.35762
  46  N 4   px      -0.08961  -0.16471  -0.05743   0.10664  -0.09727  -0.02856
  47  N 4   py       0.14154  -0.12308  -0.05871  -0.04071  -0.14060   0.05342
  48  N 4   pz      -0.07278  -0.07787   0.16452   0.13766   0.03408   0.02265
  49  N 4   px       0.64148  -0.57381   0.75523  -0.04725   0.01606  -0.09839
  50  N 4   py      -0.52051  -0.09290  -1.02737   0.03080   0.07058   0.01630
  51  N 4   pz      -1.01272   0.01524  -0.50957  -0.01341   0.00703   0.12209
  52  N 4   d 1     -0.08864  -0.01082  -0.02187  -0.34703  -0.09053   0.02329
  53  N 4   d 2      0.03594  -0.06061   0.04828  -0.25333   0.25957   0.16276
  54  N 4   d 3      0.15159   0.07983  -0.12427  -0.03137  -0.01035   0.13103
  55  N 4   d 4     -0.01679  -0.01774  -0.07567   0.09689   0.35300   0.21653
  56  N 4   d 5      0.03648  -0.19069  -0.07425   0.01179  -0.02508   0.52153
                        43        44        45        46        47        48
 eigenvalues:          2.329     2.336     2.339     2.342     2.345     2.494
   1  N 1   s        0.02803   0.01211   0.02127   0.07812  -0.01204   0.02051
   2  N 1   s        0.10359   0.05033   0.06576   0.30068  -0.03314   0.86078
   3  N 1   s       -0.63209  -0.26581  -0.50930  -1.77296   0.29576  -0.35038
   4  N 1   px       0.04076   0.04791   0.11486   0.18252   0.03081  -0.28828
   5  N 1   py       0.07911  -0.00647   0.08704   0.15868  -0.11320  -0.28880
   6  N 1   pz       0.08195   0.03742  -0.02883   0.20471  -0.02150  -0.28778
   7  N 1   px       0.23041  -0.02645  -0.10668   0.38453  -0.31426   0.28652
   8  N 1   py       0.09419   0.17917  -0.00829   0.45818   0.24530   0.27832
   9  N 1   pz       0.08354   0.02190   0.43822   0.31110  -0.11678   0.29370
  10  N 1   d 1     -0.24921  -0.17454   0.42526   0.15597  -0.10848  -0.15239
  11  N 1   d 2      0.13592   0.11585  -0.19816   0.09671  -0.42903  -0.17475
  12  N 1   d 3     -0.37885  -0.24413  -0.24700   0.24145   0.00454  -0.00047
  13  N 1   d 4      0.25796   0.12024  -0.11223   0.15485   0.47034  -0.19960
  14  N 1   d 5     -0.34034   0.32824   0.07177   0.05934   0.00138  -0.00023
  15  N 2   s       -0.02272  -0.01295   0.06792  -0.04095  -0.00815   0.02261
  16  N 2   s       -0.08049  -0.03691   0.23708  -0.13800  -0.00831   0.85975
  17  N 2   s        0.50699   0.28797  -1.55234   0.90920   0.18386  -0.39025
  18  N 2   px       0.02875   0.05952  -0.17977   0.07369   0.10755   0.27760
  19  N 2   py       0.06029   0.00419  -0.20505   0.05492  -0.03573   0.28237
  20  N 2   pz      -0.07796  -0.04218   0.12532  -0.17788  -0.01351  -0.28245
  21  N 2   px       0.21073  -0.03158  -0.28015   0.29973  -0.27771  -0.28358
  22  N 2   py       0.08655   0.17500  -0.18706   0.36858   0.27977  -0.29676
  23  N 2   pz      -0.02843  -0.03479   0.52223   0.08761  -0.10051   0.29731
  24  N 2   d 1      0.29806   0.16297   0.44090   0.18627  -0.09377  -0.15661
  25  N 2   d 2      0.31831   0.10488  -0.08507   0.13427  -0.43922   0.18386
  26  N 2   d 3      0.36158   0.25278   0.02413  -0.34126   0.04898   0.00041
  27  N 2   d 4      0.10476   0.13578   0.14672   0.27196   0.40367   0.17000
  28  N 2   d 5     -0.01340  -0.30339   0.08300   0.02653  -0.05123   0.00847
  29  N 3   s       -0.01731   0.02344  -0.03472  -0.01039   0.07572   0.01822
  30  N 3   s       -0.06466   0.09454  -0.16071  -0.04067   0.30677   0.86051
  31  N 3   s        0.39845  -0.52924   0.80297   0.25934  -1.72988  -0.30424
  32  N 3   px       0.00624  -0.06151   0.13836  -0.02671  -0.15351   0.29926
  33  N 3   py      -0.07147   0.02812  -0.08004  -0.11094   0.14940  -0.29403
  34  N 3   pz       0.04723  -0.06733  -0.00668  -0.00721  -0.20619   0.29474
  35  N 3   px       0.21456  -0.08675  -0.06824   0.25076  -0.45460  -0.28617
  36  N 3   py       0.01955   0.20065  -0.13278   0.27018   0.43554   0.27356
  37  N 3   pz       0.06221  -0.06246   0.47755   0.18484  -0.24966  -0.27470
  38  N 3   d 1     -0.12895   0.28959   0.42326   0.19251  -0.06637   0.18004
  39  N 3   d 2      0.07393  -0.19290  -0.26287   0.36393  -0.17866   0.16758
  40  N 3   d 3      0.21694  -0.41872   0.17814   0.05861   0.26965   0.00633
  41  N 3   d 4     -0.14944   0.21008  -0.00103   0.49667   0.12674  -0.19432
  42  N 3   d 5      0.46221   0.16536  -0.06871  -0.03013   0.04037  -0.00335
  43  N 4   s        0.01211  -0.02179  -0.05674  -0.02607  -0.05358   0.02058
  44  N 4   s        0.04707  -0.07104  -0.24366  -0.08866  -0.17750   0.86049
  45  N 4   s       -0.27561   0.49198   1.30019   0.59079   1.21436  -0.35083
  46  N 4   px      -0.01069  -0.06576  -0.12542  -0.14341  -0.10225  -0.28792
  47  N 4   py      -0.05354   0.03210   0.18003   0.00676   0.10603   0.29265
  48  N 4   pz      -0.04155   0.06955   0.06327   0.04609   0.20064   0.28337
  49  N 4   px       0.20072  -0.07463  -0.27285   0.17340  -0.39274   0.28633
  50  N 4   py       0.02682   0.19239   0.07440   0.34446   0.37441  -0.29837
  51  N 4   pz      -0.00636   0.04505   0.51674   0.20547   0.00304  -0.27370
  52  N 4   d 1      0.17949  -0.29802   0.43002   0.16581  -0.11971   0.18857
  53  N 4   d 2      0.23964  -0.20944  -0.13140   0.39929  -0.21229  -0.17497
  54  N 4   d 3     -0.20351   0.42570   0.04858   0.01848  -0.32318   0.01358
  55  N 4   d 4     -0.00129   0.20731  -0.28101   0.37528   0.20251   0.16235
  56  N 4   d 5     -0.12391  -0.19878  -0.08797  -0.05838   0.01868   0.00790
                        49        50        51        52        53        54
 eigenvalues:          2.625     2.633     2.960     2.962     2.963     3.178
   1  N 1   s       -0.00044  -0.00038   0.00265  -0.15232   0.00598   0.00007
   2  N 1   s       -0.01111  -0.00992   0.01376  -1.10220   0.04853   0.01223
   3  N 1   s        0.00887   0.00786  -0.10895   4.41689  -0.14195  -0.00975
   4  N 1   px       0.06587  -0.05653   0.14510  -0.13591   0.13556   0.05998
   5  N 1   py      -0.08241  -0.01809  -0.18101  -0.14420   0.04964   0.01664
   6  N 1   pz       0.02691   0.08396   0.05833  -0.15062  -0.18281  -0.08864
   7  N 1   px      -0.14008   0.13221   0.33790  -1.35218   0.34139   0.44011
   8  N 1   py       0.17998   0.04398  -0.38197  -1.38383   0.15220   0.14510
   9  N 1   pz      -0.05615  -0.19095   0.14613  -1.37162  -0.36234  -0.57693
  10  N 1   d 1      0.02431   0.07789   0.04284   0.64928  -0.25764  -0.60666
  11  N 1   d 2      0.05792  -0.05011   0.15043   0.66459   0.15933   0.46092
  12  N 1   d 3      0.15351   0.57312  -0.07044  -0.00210   0.24518   0.50245
  13  N 1   d 4     -0.06867  -0.01477  -0.25383   0.65032   0.04704   0.15218
  14  N 1   d 5      0.55989  -0.15715  -0.26158  -0.01322  -0.06590  -0.14854
  15  N 2   s       -0.00026  -0.00037   0.03600   0.04765  -0.14001  -0.00009
  16  N 2   s       -0.00583  -0.00870   0.26129   0.35033  -1.01518  -0.01009
  17  N 2   s        0.00037   0.00640  -1.05024  -1.35885   4.06175   0.00882
  18  N 2   px      -0.06374   0.05803   0.13772  -0.12531   0.14597   0.04887
  19  N 2   py       0.08216   0.01881  -0.18457  -0.13788   0.05929   0.03027
  20  N 2   pz       0.02415   0.08339   0.05548  -0.13715  -0.18936   0.08710
  21  N 2   px       0.13651  -0.13320   0.05378  -0.60456   1.29012   0.35520
  22  N 2   py      -0.18348  -0.04629  -0.65894  -0.63638   1.09931   0.23421
  23  N 2   pz      -0.05211  -0.18858   0.37156   0.03128  -1.39187   0.57092
  24  N 2   d 1      0.02642   0.07221  -0.12887  -0.43010   0.52482   0.60862
  25  N 2   d 2     -0.04843   0.05142   0.37303   0.09581  -0.58633   0.36125
  26  N 2   d 3      0.15640   0.56273  -0.02822   0.24214   0.08135  -0.50954
  27  N 2   d 4      0.06941   0.02042  -0.03414   0.08005  -0.69872   0.22977
  28  N 2   d 5      0.55917  -0.15206   0.25576   0.01303   0.06678   0.05885
  29  N 3   s       -0.00035  -0.00020  -0.14048   0.04813   0.03560   0.00002
  30  N 3   s       -0.00956  -0.00489  -1.01476   0.34271   0.25687  -0.00213
  31  N 3   s        0.00563  -0.00072   4.07093  -1.41846  -1.02551   0.00103
  32  N 3   px      -0.06459   0.05851   0.14757  -0.13630   0.13905  -0.05318
  33  N 3   py      -0.08307  -0.02073  -0.18856  -0.13848   0.05558  -0.02043
  34  N 3   pz      -0.02632  -0.08437   0.06169  -0.14686  -0.18341   0.03073
  35  N 3   px       0.13878  -0.13552   1.29585  -0.63465   0.06279  -0.35215
  36  N 3   py       0.18268   0.04795  -1.38054   0.02163   0.36838  -0.14303
  37  N 3   pz       0.05323   0.18739   1.10559  -0.65391  -0.64824   0.21280
  38  N 3   d 1     -0.01943  -0.07796  -0.68913   0.08344  -0.04114   0.21687
  39  N 3   d 2     -0.05644   0.05990  -0.58161   0.09738   0.37325  -0.36874
  40  N 3   d 3      0.15457   0.57232  -0.09652  -0.13240  -0.20196   0.18857
  41  N 3   d 4     -0.07467  -0.01279   0.53555  -0.44774  -0.12322  -0.14741
  42  N 3   d 5      0.57159  -0.15977  -0.02929  -0.21923   0.15263  -0.25177
  43  N 4   s       -0.00019  -0.00017   0.09996   0.05656   0.10027   0.00000
  44  N 4   s       -0.00443  -0.00355   0.72403   0.40936   0.72503   0.00010
  45  N 4   s       -0.00233  -0.00256  -2.90548  -1.63966  -2.90037  -0.00013
  46  N 4   px       0.06240  -0.05997   0.14400  -0.12576   0.14575  -0.06453
  47  N 4   py       0.08230   0.01983  -0.18794  -0.14374   0.04941  -0.03359
  48  N 4   pz      -0.02515  -0.08413   0.04870  -0.14172  -0.18623  -0.03087
  49  N 4   px      -0.13544   0.13667   1.00689   0.11305   1.01619  -0.43583
  50  N 4   py      -0.18501  -0.04672  -1.10875  -0.71220  -0.58133  -0.22960
  51  N 4   pz       0.05280   0.18580  -0.58531  -0.69959  -1.10083  -0.20635
  52  N 4   d 1     -0.02003  -0.07172   0.60997   0.12978   0.31175  -0.22013
  53  N 4   d 2      0.06289  -0.04523  -0.36929  -0.47108  -0.36227  -0.45621
  54  N 4   d 3      0.15526   0.56344   0.19602  -0.11486  -0.12217  -0.17721
  55  N 4   d 4      0.07559   0.01974   0.31230   0.12807   0.61591  -0.23610
  56  N 4   d 5      0.56972  -0.15391   0.03760   0.21510  -0.15396   0.33956
                        55        56
 eigenvalues:          3.182     3.186
   1  N 1   s       -0.00003   0.00008
   2  N 1   s       -0.00583   0.01223
   3  N 1   s        0.00467  -0.00982
   4  N 1   px       0.00372  -0.07235
   5  N 1   py      -0.02485   0.08606
   6  N 1   pz       0.02686  -0.02576
   7  N 1   px       0.00511  -0.43926
   8  N 1   py      -0.17650   0.58443
   9  N 1   pz       0.16743  -0.13687
  10  N 1   d 1      0.17686  -0.14197
  11  N 1   d 2      0.00191  -0.45648
  12  N 1   d 3     -0.14504   0.12425
  13  N 1   d 4     -0.18183   0.60490
  14  N 1   d 5     -0.09646   0.52203
  15  N 2   s        0.00011   0.00003
  16  N 2   s        0.00353  -0.00212
  17  N 2   s       -0.00508   0.00054
  18  N 2   px       0.05612   0.05371
  19  N 2   py      -0.07956  -0.03382
  20  N 2   pz      -0.02541   0.02207
  21  N 2   px       0.36407   0.35822
  22  N 2   py      -0.53709  -0.21585
  23  N 2   pz      -0.16570   0.13912
  24  N 2   d 1     -0.17702   0.14669
  25  N 2   d 2      0.38402   0.37257
  26  N 2   d 3      0.14806  -0.12307
  27  N 2   d 4     -0.55577  -0.22994
  28  N 2   d 5      0.45640   0.28654
  29  N 3   s        0.00012  -0.00011
  30  N 3   s        0.00362  -0.01015
  31  N 3   s       -0.00531   0.00932
  32  N 3   px      -0.05415  -0.05805
  33  N 3   py       0.02639  -0.08780
  34  N 3   pz       0.08252  -0.03746
  35  N 3   px      -0.36905  -0.35511
  36  N 3   py       0.17838  -0.59059
  37  N 3   pz       0.53980  -0.21645
  38  N 3   d 1      0.56787  -0.24084
  39  N 3   d 2     -0.38060  -0.38003
  40  N 3   d 3      0.47351  -0.19077
  41  N 3   d 4      0.18176  -0.60287
  42  N 3   d 5     -0.09671  -0.47525
  43  N 4   s       -0.00020   0.00000
  44  N 4   s       -0.00132  -0.00007
  45  N 4   s        0.00571   0.00000
  46  N 4   px      -0.00199   0.06780
  47  N 4   py       0.08043   0.03354
  48  N 4   pz      -0.08163   0.03417
  49  N 4   px      -0.00889   0.44349
  50  N 4   py       0.53619   0.22219
  51  N 4   pz      -0.54069   0.22131
  52  N 4   d 1     -0.56548   0.23435
  53  N 4   d 2     -0.00711   0.46110
  54  N 4   d 3     -0.47451   0.18918
  55  N 4   d 4      0.55811   0.22678
  56  N 4   d 5     -0.26650  -0.33780

          Ground-State Mulliken Net Atomic Charges

     Atom                 Charge (a.u.)
  ----------------------------------------
      1 N                     0.000010
      2 N                    -0.001438
      3 N                     0.001451
      4 N                    -0.000023
  ----------------------------------------
  Sum of atomic charges =    -0.000000

 -----------------------------------------------------------------
                    Cartesian Multipole Moments
 -----------------------------------------------------------------
    Charge (ESU x 10^10)
                -0.0000
    Dipole Moment (Debye)
         X      -0.0001      Y       0.0076      Z      -0.0077
       Tot       0.0108
    Quadrupole Moments (Debye-Ang)
        XX     -22.5188     XY       0.0104     YY     -22.4816
        XZ      -0.0103     YZ      -0.0003     ZZ     -22.5555
    Octopole Moments (Debye-Ang^2)
       XXX      -0.0002    XXY      -0.0650    XYY      -0.0195
       YYY      -0.1479    XXZ       0.0652    XYZ      -2.0167
       YYZ       0.0457    XZZ       0.0193    YZZ      -0.0457
       ZZZ       0.1474
    Hexadecapole Moments (Debye-Ang^3)
      XXXX     -53.8915   XXXY      -0.0736   XXYY     -18.6247
      XYYY      -0.0827   YYYY     -54.1089   XXXZ       0.0738
      XXYZ       0.0007   XYYZ       0.0045   YYYZ      -0.0079
      XXZZ     -18.5174   XYZZ      -0.0042   YYZZ     -18.5714
      XZZZ       0.0823   YZZZ       0.0096   ZZZZ     -53.6785
 -----------------------------------------------------------------
Archival summary:
1\1\He\SP\HF\BasisUnspecified\4\vladimir\WedMay1705:52:562017WedMay1705:52:562017\0\\#,HF,BasisUnspecified,\\0,1\N\N,1,1.46376\N,1,1.47078,2,60.1608\N,3,1.47078,1,60,2,-71.0498,0\\HF=-217.535719\\@

 Total job time:  0.58s(wall), 3.03s(cpu) 
 Wed May 17 05:52:56 2017

======= MOLDEN-FORMATTED INPUT FILE FOLLOWS =======
[Molden Format]
[Atoms] (Angs)
  N      1    7      0.52000000      0.53000000      0.51000000
  N      2    7     -0.52000000     -0.52000000      0.52000000
  N      3    7     -0.52000000      0.52000000     -0.52000000
  N      4    7      0.52000000     -0.52000000     -0.52000000
[GTO]
1    0
S    7    1.000000
   9.04600000E+03    7.00000000E-04 
   1.35700000E+03    5.38983000E-03 
   3.09300000E+02    2.74060000E-02 
   8.77300000E+01    1.03262320E-01 
   2.85600000E+01    2.78905240E-01 
   1.02100000E+01    4.50217400E-01 
   3.83800000E+00    2.79943000E-01 
S    7    1.000000
   9.04600000E+03    5.00000000E-08 
   1.35700000E+03   -2.97600000E-05 
   8.77300000E+01   -1.97900000E-03 
   2.85600000E+01   -6.51949000E-03 
   1.02100000E+01   -6.00100000E-02 
   3.83800000E+00   -6.09975300E-02 
   7.46600000E-01    5.52378750E-01 
S    1    1.000000
   2.24800000E-01    1.00000000E+00 
P    3    1.000000
   1.35500000E+01    3.99190000E-02 
   2.91700000E+00    2.17169000E-01 
   7.97300000E-01    5.10319000E-01 
P    1    1.000000
   2.18500000E-01    1.00000000E+00 
D    1    1.000000
   8.17000000E-01    1.00000000E+00 

2    0
S    7    1.000000
   9.04600000E+03    7.00000000E-04 
   1.35700000E+03    5.38983000E-03 
   3.09300000E+02    2.74060000E-02 
   8.77300000E+01    1.03262320E-01 
   2.85600000E+01    2.78905240E-01 
   1.02100000E+01    4.50217400E-01 
   3.83800000E+00    2.79943000E-01 
S    7    1.000000
   9.04600000E+03    5.00000000E-08 
   1.35700000E+03   -2.97600000E-05 
   8.77300000E+01   -1.97900000E-03 
   2.85600000E+01   -6.51949000E-03 
   1.02100000E+01   -6.00100000E-02 
   3.83800000E+00   -6.09975300E-02 
   7.46600000E-01    5.52378750E-01 
S    1    1.000000
   2.24800000E-01    1.00000000E+00 
P    3    1.000000
   1.35500000E+01    3.99190000E-02 
   2.91700000E+00    2.17169000E-01 
   7.97300000E-01    5.10319000E-01 
P    1    1.000000
   2.18500000E-01    1.00000000E+00 
D    1    1.000000
   8.17000000E-01    1.00000000E+00 

3    0
S    7    1.000000
   9.04600000E+03    7.00000000E-04 
   1.35700000E+03    5.38983000E-03 
   3.09300000E+02    2.74060000E-02 
   8.77300000E+01    1.03262320E-01 
   2.85600000E+01    2.78905240E-01 
   1.02100000E+01    4.50217400E-01 
   3.83800000E+00    2.79943000E-01 
S    7    1.000000
   9.04600000E+03    5.00000000E-08 
   1.35700000E+03   -2.97600000E-05 
   8.77300000E+01   -1.97900000E-03 
   2.85600000E+01   -6.51949000E-03 
   1.02100000E+01   -6.00100000E-02 
   3.83800000E+00   -6.09975300E-02 
   7.46600000E-01    5.52378750E-01 
S    1    1.000000
   2.24800000E-01    1.00000000E+00 
P    3    1.000000
   1.35500000E+01    3.99190000E-02 
   2.91700000E+00    2.17169000E-01 
   7.97300000E-01    5.10319000E-01 
P    1    1.000000
   2.18500000E-01    1.00000000E+00 
D    1    1.000000
   8.17000000E-01    1.00000000E+00 

4    0
S    7    1.000000
   9.04600000E+03    7.00000000E-04 
   1.35700000E+03    5.38983000E-03 
   3.09300000E+02    2.74060000E-02 
   8.77300000E+01    1.03262320E-01 
   2.85600000E+01    2.78905240E-01 
   1.02100000E+01    4.50217400E-01 
   3.83800000E+00    2.79943000E-01 
S    7    1.000000
   9.04600000E+03    5.00000000E-08 
   1.35700000E+03   -2.97600000E-05 
   8.77300000E+01   -1.97900000E-03 
   2.85600000E+01   -6.51949000E-03 
   1.02100000E+01   -6.00100000E-02 
   3.83800000E+00   -6.09975300E-02 
   7.46600000E-01    5.52378750E-01 
S    1    1.000000
   2.24800000E-01    1.00000000E+00 
P    3    1.000000
   1.35500000E+01    3.99190000E-02 
   2.91700000E+00    2.17169000E-01 
   7.97300000E-01    5.10319000E-01 
P    1    1.000000
   2.18500000E-01    1.00000000E+00 
D    1    1.000000
   8.17000000E-01    1.00000000E+00 

[MO]
Sym=X
Ene= -15.752140
Spin=Alpha
Occup=1
     1    5.032364575547e-01
     2    8.291696958260e-03
     3   -1.392547838086e-03
     4   -1.049752048308e-03
     5   -1.059349972065e-03
     6   -1.039303831454e-03
     7    7.162503245953e-04
     8    7.195446151004e-04
     9    7.161445292783e-04
    10    5.795166480342e-06
    11   -1.860838036708e-04
    12   -1.861335638690e-04
    13    2.963972308250e-06
    14   -1.871430858249e-04
    15    5.050102618392e-01
    16    8.299324784532e-03
    17   -1.363452432115e-03
    18    1.046529369790e-03
    19    1.049654692900e-03
    20   -1.055916301151e-03
    21   -7.002284198689e-04
    22   -6.985042110563e-04
    23    7.150295828557e-04
    24    1.213240973220e-06
    25    1.877967441881e-04
    26    1.853555052864e-04
    27    1.490751303391e-06
    28   -1.832619537584e-04
    29    4.913413109389e-01
    30    8.131088639104e-03
    31   -1.356091693804e-03
    32    1.036462369260e-03
    33   -1.025833208413e-03
    34    1.034087438184e-03
    35   -7.178244178212e-04
    36    7.085724342301e-04
    37   -7.163937145393e-04
    38    3.258844387307e-07
    39   -1.942258383219e-04
    40    1.899165110189e-04
    41   -1.133421710179e-06
    42    1.863770546961e-04
    43    4.956216717242e-01
    44    8.176393118671e-03
    45   -1.342030079910e-03
    46   -1.036959026990e-03
    47    1.040430440004e-03
    48    1.034952824188e-03
    49    7.069917532231e-04
    50   -7.039730695921e-04
    51   -7.042662696189e-04
    52    1.626464328111e-06
    53    1.910837649418e-04
    54   -1.891174706522e-04
    55    1.856622631240e-06
    56    1.851137796268e-04
Sym=X
Ene= -15.751229
Spin=Alpha
Occup=1
     1   -6.086437426504e-01
     2   -9.256700990170e-03
     3    4.174321463862e-03
     4    9.238064368138e-04
     5    9.136568435275e-04
     6    1.047927784084e-03
     7   -1.171672590594e-03
     8   -1.240505331231e-03
     9   -6.708211988234e-04
    10    1.227786121136e-04
    11   -7.505837727693e-05
    12   -8.942172623363e-05
    13    1.114539966165e-05
    14   -2.494352049728e-04
    15    7.779409094414e-01
    16    1.180894737809e-02
    17   -5.342778680208e-03
    18    1.194937839246e-03
    19    1.184290561876e-03
    20   -1.288542827439e-03
    21   -1.385513435923e-03
    22   -1.447366117222e-03
    23    1.112170758064e-03
    24   -6.783925641036e-05
    25   -1.398781190546e-04
    26   -1.602996643156e-04
    27   -1.238575127924e-05
    28    2.418456138292e-04
    29   -1.330636782983e-01
    30   -2.030970264381e-03
    31    9.134422310733e-04
    32   -3.217781333455e-04
    33    1.121182127476e-04
    34   -1.968333657780e-04
    35   -2.108494793988e-04
    36   -6.180918568924e-04
    37    2.796221833424e-04
    38   -1.953508868261e-05
    39    1.136726680765e-04
    40    1.874308929091e-04
    41    1.887547642503e-04
    42    1.355601618356e-05
    43   -4.276898611115e-02
    44   -6.508983033793e-04
    45    2.775324222991e-04
    46   -2.459723313363e-05
    47   -1.845675913559e-04
    48   -4.574666355161e-05
    49   -4.404209115546e-04
    50   -3.928891907950e-04
    51    1.596201685156e-04
    52   -3.579643958996e-05
    53    1.714772159390e-04
    54    1.216547416472e-04
    55   -1.861127137225e-04
    56   -2.157951527221e-05
Sym=X
Ene= -15.751206
Spin=Alpha
Occup=1
     1   -4.691959066244e-01
     2   -7.121030651296e-03
     3    3.220335528382e-03
     4    8.408363134355e-04
     5    7.182003233162e-04
     6    6.651793553006e-04
     7   -3.952003960803e-04
     8   -9.013062098494e-04
     9   -1.063781068459e-03
    10   -1.106504098223e-04
    11   -8.288293671014e-05
    12   -2.536425273162e-04
    13    1.092113371764e-04
    14   -1.105502881330e-05
    15   -3.241231743977e-01
    16   -4.909538763760e-03
    17    2.218113010419e-03
    18   -4.888610339921e-04
    19   -6.155344735488e-04
    20    4.269343217684e-04
    21    6.156790978038e-04
    22    1.152047037029e-04
    23   -8.865168525447e-04
    24   -1.336218393246e-04
    25    2.274577231803e-04
    26    5.258131584837e-05
    27   -1.113905668577e-04
    28    4.072221212513e-05
    29   -1.186163601403e-02
    30   -1.808145279147e-04
    31    1.097682146476e-04
    32    3.482997368228e-05
    33   -5.518097654803e-05
    34   -1.365600172472e-04
    35    2.217650216603e-04
    36   -3.121257503313e-04
    37   -4.510985233767e-04
    38    1.881957578072e-04
    39    1.024798432084e-04
    40   -6.488440786379e-05
    41    2.253824445610e-05
    42    1.766152636896e-04
    43    8.184293805390e-01
    44    1.243744179664e-02
    45   -5.586057783922e-03
    46   -1.326904192051e-03
    47    1.308359633380e-03
    48    1.254605035781e-03
    49    1.253740443695e-03
    50   -1.346188350389e-03
    51   -1.518855436341e-03
    52    5.864744805487e-05
    53   -2.033600758379e-04
    54    2.351303835783e-04
    55   -1.944063557079e-05
    56   -1.400756515400e-04
Sym=X
Ene= -15.751190
Spin=Alpha
Occup=1
     1   -3.890657196001e-01
     2   -5.896541236537e-03
     3    2.663954214138e-03
     4    5.555587348407e-04
     5    7.237603429888e-04
     6    5.687077210931e-04
     7   -8.957926949948e-04
     8   -2.248319160817e-04
     9   -8.227042282185e-04
    10   -7.538752422003e-05
    11   -2.631991235317e-04
    12   -1.159919370846e-05
    13   -1.601510798358e-04
    14   -3.187369085345e-05
    15   -1.730078065115e-01
    16   -2.617002830528e-03
    17    1.198374398151e-03
    18   -3.894434743153e-04
    19   -2.202008671382e-04
    20    2.052853084378e-04
    21   -1.849645232541e-04
    22    4.942627544821e-04
    23   -5.572521180893e-04
    24   -1.027992099724e-04
    25   -2.892461337734e-05
    26    2.105383445318e-04
    27    1.497873160699e-04
    28    4.836130677558e-05
    29    8.578719332838e-01
    30    1.304951923415e-02
    31   -5.850684481685e-03
    32    1.360041983459e-03
    33   -1.368349757388e-03
    34    1.372160042882e-03
    35   -1.503343381798e-03
    36    1.365747200898e-03
    37   -1.434282615242e-03
    38    5.671965430570e-06
    39    2.401686110266e-04
    40   -1.778799194082e-04
    41    3.864614244535e-05
    42   -2.016258295888e-04
    43   -2.791315803676e-01
    44   -4.236093927566e-03
    45    1.937473249647e-03
    46    3.660374541159e-04
    47   -4.005567871987e-04
    48   -5.517942988846e-04
    49   -7.614935381494e-04
    50    6.330454054410e-04
    51    2.293399860029e-05
    52    1.731122365640e-04
    53    1.132313200306e-05
    54    3.402485739412e-05
    55   -2.970324485431e-05
    56    2.291322210303e-04
Sym=X
Ene= -1.664764
Spin=Alpha
Occup=1
     1   -9.516162180246e-02
     2    2.026525057608e-01
     3    1.221478903908e-01
     4   -7.438750794578e-02
     5   -7.438379289905e-02
     6   -7.436029279879e-02
     7   -2.378329586721e-02
     8   -2.394145043686e-02
     9   -2.362610256699e-02
    10   -1.769864300130e-04
    11    1.445029231858e-02
    12    1.445027441552e-02
    13   -9.936328889982e-05
    14    1.445421039224e-02
    15   -9.451558108411e-02
    16    2.013610940285e-01
    17    1.208672163330e-01
    18    7.326121539910e-02
    19    7.374477602930e-02
    20   -7.466355404443e-02
    21    2.337569587269e-02
    22    2.339962330583e-02
    23   -2.366951957098e-02
    24    1.348702358229e-04
    25   -1.447183815256e-02
    26   -1.451934895455e-02
    27   -1.169070417044e-04
    28    1.424463375127e-02
    29   -9.580820866267e-02
    30    2.039370476901e-01
    31    1.234730297045e-01
    32    7.549708111443e-02
    33   -7.406216165282e-02
    34    7.499645428870e-02
    35    2.421022011142e-02
    36   -2.390441822435e-02
    37    2.418146498106e-02
    38   -3.678992735916e-05
    39    1.465874028158e-02
    40   -1.438155217736e-02
    41    1.775897189453e-04
    42   -1.442759710764e-02
    43   -9.515369993621e-02
    44    2.026320193475e-01
    45    1.221566331242e-01
    46   -7.437155654031e-02
    47    7.485545623409e-02
    48    7.387153945959e-02
    49   -2.378792925338e-02
    50    2.381463678794e-02
    51    2.376201747134e-02
    52   -2.058614498437e-04
    53   -1.440490472300e-02
    54    1.444914600602e-02
    55   -1.184764126274e-04
    56   -1.449849615520e-02
Sym=X
Ene= -1.049883
Spin=Alpha
Occup=1
     1    1.147895035972e-01
     2   -2.642609443628e-01
     3   -3.358401324970e-01
     4    2.601498061467e-02
     5   -1.009860611332e-01
     6    8.720332121104e-02
     7    2.798847917582e-02
     8   -1.206338743112e-02
     9    4.748082596785e-02
    10   -1.393389708886e-02
    11   -1.503825381553e-02
    12    1.605881779811e-03
    13   -1.242993910888e-02
    14    9.844633258919e-03
    15   -1.229901519827e-01
    16    2.829147222730e-01
    17    3.599145908552e-01
    18    2.997401726676e-02
    19   -9.496338502060e-02
    20   -7.564727298166e-02
    21    3.071132558959e-02
    22   -8.842175213709e-03
    23   -4.564369873889e-02
    24    1.223808377677e-02
    25   -1.419499771482e-02
    26    2.424835016768e-03
    27    1.222103392398e-02
    28   -8.397783063534e-03
    29    6.750069237741e-02
    30   -1.554528627247e-01
    31   -1.975882835203e-01
    32   -1.012352824810e-01
    33   -1.350068562581e-01
    34   -3.862027989397e-02
    35   -4.382762483135e-02
    36   -3.119413621770e-02
    37   -2.387980525712e-02
    38   -6.081036415717e-03
    39   -1.862093314298e-02
    40   -1.277559642058e-02
    41   -2.299537294541e-02
    42   -4.610612345683e-03
    43   -6.033524429606e-02
    44    1.387550893030e-01
    45    1.768430314806e-01
    46   -9.458245086918e-02
    47   -1.381739620077e-01
    48    4.935966538016e-02
    49   -4.058668135666e-02
    50   -3.328481843426e-02
    51    2.618534104561e-02
    52    8.092650790910e-03
    53   -1.914834779849e-02
    54   -1.168236020196e-02
    55    2.287034932331e-02
    56    5.635778693836e-03
Sym=X
Ene= -1.046458
Spin=Alpha
Occup=1
     1   -3.209689063564e-02
     2    7.386979835508e-02
     3    9.441662596628e-02
     4    1.501818473705e-01
     5   -7.644375065693e-02
     6   -7.572655309742e-02
     7    4.246452744182e-02
     8   -2.993655260108e-02
     9   -2.993208524640e-02
    10    1.255316558834e-02
    11   -9.651391086150e-03
    12    2.024828162850e-02
    13   -2.218939404101e-02
    14   -9.802136710279e-03
    15    8.735105450727e-02
    16   -2.010190396255e-01
    17   -2.566744453315e-01
    18    1.126403182550e-01
    19   -1.126560685982e-01
    20    5.233343034043e-03
    21    2.093153603515e-02
    22   -5.113619296432e-02
    23    1.697208136275e-02
    24   -5.000988376858e-04
    25   -1.401694473207e-02
    26    1.593063535314e-02
    27    2.193676126996e-02
    28   -2.666833699183e-04
    29    8.690032583818e-02
    30   -2.000254389268e-01
    31   -2.558501048217e-01
    32    1.130481371801e-01
    33    4.400286613770e-03
    34   -1.142211522926e-01
    35    2.095953111471e-02
    36    1.642937400533e-02
    37   -5.177714342909e-02
    38   -1.898398688787e-02
    39   -3.707357574547e-04
    40    1.588330274248e-02
    41    1.156048073306e-02
    42   -1.412829759004e-02
    43   -1.421563759816e-01
    44    3.271754833876e-01
    45    4.181209170001e-01
    46    7.548226679146e-02
    47    4.313638553286e-02
    48    4.117856817435e-02
    49   -5.856995614294e-04
    50    3.863090361488e-02
    51    3.781844134193e-02
    52    6.349620485588e-03
    53    4.069258887738e-03
    54    1.156058252706e-02
    55   -1.164013136078e-02
    56    3.978729205048e-03
Sym=X
Ene= -1.043083
Spin=Alpha
Occup=1
     1    1.144923848425e-01
     2   -2.634351359728e-01
     3   -3.385227024685e-01
     4    2.097810952597e-02
     5    8.472549128702e-02
     6   -1.036769311105e-01
     7    2.693617065763e-02
     8    4.742316522249e-02
     9   -1.353416409035e-02
    10    1.765896693514e-02
    11    1.041577193977e-02
    12    2.100684950086e-03
    13    6.339065437331e-03
    14   -1.459345353036e-02
    15    6.831050449095e-02
    16   -1.571210146089e-01
    17   -2.018578894889e-01
    18   -9.955250887986e-02
    19   -3.714182741897e-02
    20   -1.331557204276e-01
    21   -4.404005121961e-02
    22   -2.398681362363e-02
    23   -3.097169834106e-02
    24    2.282995237191e-02
    25   -3.946425726433e-03
    26   -1.233799432506e-02
    27   -5.968062116036e-03
    28   -1.838937733915e-02
    29   -1.228770127567e-01
    30    2.829574444436e-01
    31    3.632299238897e-01
    32    2.825620092788e-02
    33   -7.486637450221e-02
    34   -9.847308890224e-02
    35    3.069935024246e-02
    36   -4.528950921912e-02
    37   -1.027979813388e-02
    38   -1.684904766046e-02
    39   -8.842053242029e-03
    40    2.586189906336e-03
    41   -4.515355534105e-03
    42   -1.413855108987e-02
    43   -5.888418746855e-02
    44    1.356303555123e-01
    45    1.737840871971e-01
    46   -9.495504259687e-02
    47    4.792928520187e-02
    48   -1.411881116205e-01
    49   -4.080382426413e-02
    50    2.568109423552e-02
    51   -3.536027539041e-02
    52   -2.377716648136e-02
    53    5.943128640784e-03
    54   -1.211273194014e-02
    55    4.575738224789e-03
    56   -1.917983323511e-02
Sym=X
Ene= -0.685760
Spin=Alpha
Occup=1
     1   -4.694699980174e-02
     2    9.757662319771e-02
     3    2.192026026323e-01
     4    1.650607631092e-01
     5    1.674428667666e-01
     6    1.626875666379e-01
     7    8.671293245885e-02
     8    8.819075186173e-02
     9    8.524670188149e-02
    10    4.793521537058e-04
    11   -2.123670817399e-02
    12   -2.162763204817e-02
    13    2.800826000324e-04
    14   -2.202460765468e-02
    15   -4.695928143544e-02
    16    9.753915400148e-02
    17    2.197983437959e-01
    18   -1.633923588328e-01
    19   -1.642221805453e-01
    20    1.641644602615e-01
    21   -8.566362675126e-02
    22   -8.588667339365e-02
    23    8.584289963892e-02
    24   -1.047333757285e-04
    25    2.145697531698e-02
    26    2.156506410975e-02
    27    8.609868121322e-05
    28   -2.154748680712e-02
    29   -4.692465914297e-02
    30    9.759049184491e-02
    31    2.185225645007e-01
    32   -1.667557527806e-01
    33    1.659339834415e-01
    34   -1.659429308445e-01
    35   -8.780223906356e-02
    36    8.758990061042e-02
    37   -8.758694421374e-02
    38    1.558350926400e-05
    39   -2.172787850449e-02
    40    2.170124119058e-02
    41   -1.431672389677e-04
    42    2.180878205450e-02
    43   -4.694624199119e-02
    44    9.757290263262e-02
    45    2.191850372379e-01
    46    1.650376748861e-01
    47   -1.658879679169e-01
    48   -1.642453204882e-01
    49    8.670586629209e-02
    50   -8.694426954643e-02
    51   -8.650589698438e-02
    52    1.466165182795e-04
    53    2.152424985358e-02
    54   -2.163555117478e-02
    55    8.838281107526e-05
    56    2.173982662749e-02
Sym=X
Ene= -0.571335
Spin=Alpha
Occup=1
     1   -4.660295968878e-02
     2    1.221270529746e-01
     3    1.527722858327e-01
     4    2.791434199749e-02
     5    2.712415228754e-02
     6    2.953922238122e-01
     7    3.940286739127e-02
     8    3.923246021636e-02
     9    1.862467560572e-01
    10   -2.599652941340e-02
    11   -8.271092113468e-03
    12   -7.954363211743e-03
    13    2.759006185017e-04
    14    3.637872304149e-03
    15    7.914384709222e-02
    16   -2.077073296574e-01
    17   -2.590517812593e-01
    18    1.603992283127e-01
    19    1.704070312944e-01
    20   -2.542842450110e-01
    21    1.285907011359e-01
    22    1.348560273094e-01
    23   -1.806189228950e-01
    24    8.373978787066e-03
    25   -7.756884996554e-03
    26   -8.529591759359e-03
    27   -5.470823201829e-04
    28    4.313035285428e-03
    29   -1.537968133215e-02
    30    4.022034445080e-02
    31    5.056956724386e-02
    32   -2.489211326479e-01
    33   -1.103791900079e-01
    34    2.528303100680e-02
    35   -1.448135055294e-01
    36   -5.258335890823e-02
    37    6.290018476064e-03
    38    9.263695442688e-03
    39   -7.701468722237e-03
    40   -8.000085514816e-03
    41   -2.995345618852e-02
    42    3.800891554614e-03
    43   -1.690831160752e-02
    44    4.421859456456e-02
    45    5.570157236416e-02
    46   -1.024698431990e-01
    47   -2.434447373342e-01
    48    1.988180545530e-02
    49   -4.736341097487e-02
    50   -1.416398029489e-01
    51    2.440818163372e-03
    52    8.746934926620e-03
    53   -7.171049758161e-03
    54   -7.077685367729e-03
    55    2.960831621808e-02
    56    3.929321111832e-03
Sym=X
Ene= -0.570199
Spin=Alpha
Occup=1
     1   -4.945782641818e-02
     2    1.298221277561e-01
     3    1.616069114800e-01
     4    2.961624079757e-01
     5    3.387546245804e-02
     6    3.693680803906e-02
     7    1.887467265010e-01
     8    4.465434750394e-02
     9    4.576824991292e-02
    10    1.299859465658e-02
    11   -8.315652227451e-03
    12    3.231797854301e-03
    13   -2.166007765868e-02
    14   -7.619458036081e-03
    15   -1.545653827225e-02
    16    4.055416045145e-02
    17    5.064711290585e-02
    18    1.378128354094e-02
    19   -2.355786813104e-01
    20   -1.106991301177e-01
    21   -5.827873375730e-04
    22   -1.367044568010e-01
    23   -5.281809410707e-02
    24    2.219273741369e-02
    25   -6.803488311329e-03
    26    3.572427864863e-03
    27    2.129356986840e-02
    28   -7.131321449569e-03
    29   -1.297323061818e-02
    30    3.406733490453e-02
    31    4.225104246431e-02
    32    2.198663047324e-02
    33   -1.254399146231e-01
    34   -2.472008175535e-01
    35    5.391164293974e-03
    36   -6.235500886209e-02
    37   -1.437102570314e-01
    38   -3.054328738371e-02
    39   -8.442136266123e-03
    40    3.329889154701e-03
    41   -8.175093309029e-03
    42   -8.381296311952e-03
    43    7.788060549240e-02
    44   -2.044498782566e-01
    45   -2.544271691580e-01
    46   -2.585086006185e-01
    47    1.687355577924e-01
    48    1.504362926329e-01
    49   -1.827635141690e-01
    50    1.342041335357e-01
    51    1.225665802796e-01
    52   -5.643823402245e-03
    53   -7.337202890606e-03
    54    3.879200939137e-03
    55    7.871005868245e-03
    56   -8.794611647406e-03
Sym=X
Ene= -0.569000
Spin=Alpha
Occup=1
     1   -4.550200144897e-02
     2    1.196651803461e-01
     3    1.481042777699e-01
     4    1.371081127607e-02
     5    2.924567191236e-01
     6    2.684855052033e-02
     7    3.146333670567e-02
     8    1.852258656920e-01
     9    3.842909116166e-02
    10    1.250603228547e-02
    11    3.882849748259e-03
    12   -7.895709538074e-03
    13    2.323359813181e-02
    14   -7.085654221934e-03
    15   -1.535622796266e-02
    16    4.046125707713e-02
    17    4.985542101655e-02
    18   -2.447604281150e-01
    19    2.694579107961e-02
    20   -1.030191329545e-01
    21   -1.428594705735e-01
    22    6.417776557326e-03
    23   -4.885682358245e-02
    24    2.076535534148e-02
    25    4.288001708274e-03
    26   -7.238533329393e-03
    27   -2.288613213288e-02
    28   -7.331364252942e-03
    29    7.896650577588e-02
    30   -2.073633038962e-01
    31   -2.574487462068e-01
    32    1.685178149125e-01
    33   -2.477287275350e-01
    34    1.718757497426e-01
    35    1.347681003658e-01
    36   -1.779720920807e-01
    37    1.358962454515e-01
    38   -3.430472844621e-03
    39    4.512427116183e-03
    40   -7.682148198399e-03
    41   -7.037104467599e-03
    42   -7.849526131514e-03
    43   -1.835811371852e-02
    44    4.836899066029e-02
    45    5.948358058866e-02
    46   -1.034827871330e-01
    47    1.250460448648e-02
    48   -2.566195834524e-01
    49   -4.758658789662e-02
    50   -3.050664460871e-03
    51   -1.518883486987e-01
    52   -3.010044917137e-02
    53    4.194813738729e-03
    54   -8.472078911937e-03
    55    7.348507453399e-03
    56   -7.439095919167e-03
Sym=X
Ene= -0.536731
Spin=Alpha
Occup=1
     1    1.025726383392e-03
     2   -3.261657124870e-03
     3   -2.207732782698e-03
     4    1.858391100972e-01
     5   -2.563540906227e-01
     6    6.654551429139e-02
     7    1.239467264918e-01
     8   -1.726477383021e-01
     9    4.393583381492e-02
    10   -2.539119081300e-03
    11   -2.744005848188e-02
    12    2.016619627472e-02
    13   -9.515007385902e-03
    14    7.314989393368e-03
    15   -7.016227778736e-04
    16    1.655804620659e-03
    17    2.607465695036e-03
    18   -1.945640818219e-01
    19    2.613822668555e-01
    20    7.347835532639e-02
    21   -1.304213193558e-01
    22    1.748532719443e-01
    23    4.936307306273e-02
    24   -3.100474611257e-03
    25    2.785361823865e-02
    26   -2.032055050457e-02
    27   -1.044731707705e-02
    28    7.470040579720e-03
    29    5.503530979734e-04
    30   -1.912229017843e-03
    31   -8.663148874288e-04
    32   -1.862274576395e-01
    33   -2.546639751332e-01
    34   -6.273878588156e-02
    35   -1.246491159057e-01
    36   -1.715731045038e-01
    37   -4.168647517202e-02
    38   -1.793527120622e-03
    39   -2.730500274628e-02
    40   -2.046043459193e-02
    41   -9.091161599632e-03
    42   -7.541141059766e-03
    43   -1.219358670764e-03
    44    3.115709452544e-03
    45    4.078910424503e-03
[...]
    14    4.252581720688e-01
    15    6.791856893657e-02
    16    2.370834707222e-01
    17   -1.552337509806e+00
    18   -1.797680053231e-01
    19   -2.050507738291e-01
    20    1.253176808431e-01
    21   -2.801450296346e-01
    22   -1.870643274036e-01
    23    5.222300178026e-01
    24    2.412577958238e-02
    25    1.467155707667e-01
    26   -8.506992202520e-02
    27    8.299720673744e-02
    28    4.409049851651e-01
    29   -3.471662366913e-02
    30   -1.607088309838e-01
    31    8.029728792724e-01
    32    1.383579559269e-01
    33   -8.004334426883e-02
    34   -6.682098464457e-03
    35   -6.823532740342e-02
    36   -1.327750453096e-01
    37    4.775533987367e-01
    38    1.781421484179e-01
    39   -1.028478558404e-03
    40   -2.628673837747e-01
    41   -6.871171247784e-02
    42    4.232597194172e-01
    43   -5.674152987137e-02
    44   -2.436599678225e-01
    45    1.300187707575e+00
    46   -1.254216306520e-01
    47    1.800258912628e-01
    48    6.326665683675e-02
    49   -2.728542007226e-01
    50    7.440009849187e-02
    51    5.167438643753e-01
    52    4.857533786267e-02
    53   -2.810130849207e-01
    54   -1.314009165267e-01
    55   -8.797099994362e-02
    56    4.300164974081e-01
Sym=X
Ene= 2.342398
Spin=Alpha
Occup=0
     1    7.812326297179e-02
     2    3.006774466433e-01
     3   -1.772963855659e+00
     4    1.825216464912e-01
     5    1.586765124653e-01
     6    2.047090519063e-01
     7    3.845251230821e-01
     8    4.581781133776e-01
     9    3.111015049710e-01
    10    2.414474561392e-01
    11    1.548455526762e-01
    12    9.671394416017e-02
    13    5.934140771958e-02
    14    1.559738694728e-01
    15   -4.094500633433e-02
    16   -1.380016652607e-01
    17    9.091980861438e-01
    18    7.369347476843e-02
    19    5.491737855915e-02
    20   -1.778788313189e-01
    21    2.997275907975e-01
    22    3.685809644146e-01
    23    8.760877139397e-02
    24   -3.412639922632e-01
    25    2.719572799155e-01
    26    1.342678924658e-01
    27    2.653468166427e-02
    28    1.862748522269e-01
    29   -1.038854837613e-02
    30   -4.066891139310e-02
    31    2.593412199069e-01
    32   -2.670679083487e-02
    33   -1.109448002481e-01
    34   -7.208273980988e-03
    35    2.507645569838e-01
    36    2.701805953292e-01
    37    1.848422608270e-01
    38    5.861139666987e-02
    39    4.966736486844e-01
    40    3.639302509707e-01
    41   -3.013336173727e-02
    42    1.925090187621e-01
    43   -2.607440628462e-02
    44   -8.865634505087e-02
    45    5.907945803759e-01
    46   -1.434108988031e-01
    47    6.756450036775e-03
    48    4.608775223636e-02
    49    1.733983235669e-01
    50    3.444600356379e-01
    51    2.054721112036e-01
    52    1.847985145788e-02
    53    3.752811504641e-01
    54    3.992903926712e-01
    55   -5.837642237145e-02
    56    1.658070247304e-01
Sym=X
Ene= 2.345150
Spin=Alpha
Occup=0
     1   -1.203593782167e-02
     2   -3.314407754730e-02
     3    2.957564516615e-01
     4    3.081107500575e-02
     5   -1.131995156228e-01
     6   -2.149710498624e-02
     7   -3.142628679133e-01
     8    2.453037491798e-01
     9   -1.167789073020e-01
    10    4.544610211408e-03
    11    4.703409719764e-01
    12   -4.290284384048e-01
    13    1.376931602571e-03
    14   -1.084769237893e-01
    15   -8.145853853674e-03
    16   -8.305503544357e-03
    17    1.838613582282e-01
    18    1.075495152826e-01
    19   -3.573429226509e-02
    20   -1.350896615459e-02
    21   -2.777107686144e-01
    22    2.797695170620e-01
    23   -1.005105568314e-01
    24    4.898329621786e-02
    25    4.036678805384e-01
    26   -4.392249153837e-01
    27   -5.122877185700e-02
    28   -9.376999135883e-02
    29    7.572114207533e-02
    30    3.067720127863e-01
    31   -1.729875315007e+00
    32   -1.535111733712e-01
    33    1.494039574730e-01
    34   -2.061892444367e-01
    35   -4.546003164123e-01
    36    4.355351329804e-01
    37   -2.496602502482e-01
    38    2.696549020772e-01
    39    1.267408939974e-01
    40   -1.786609812315e-01
    41    4.037327197068e-02
    42   -6.636776686352e-02
    43   -5.357997706681e-02
    44   -1.775012247438e-01
    45    1.214358938853e+00
    46   -1.022535967332e-01
    47    1.060254791883e-01
    48    2.006441202561e-01
    49   -3.927361883704e-01
    50    3.744143812155e-01
    51    3.042584286715e-03
    52   -3.231773948682e-01
    53    2.025051258859e-01
    54   -2.122871609385e-01
    55    1.868292716176e-02
    56   -1.197112560575e-01
Sym=X
Ene= 2.493600
Spin=Alpha
Occup=0
     1    2.051350032673e-02
     2    8.607833458139e-01
     3   -3.503818887784e-01
     4   -2.882841677274e-01
     5   -2.887958577199e-01
     6   -2.877764935514e-01
     7    2.865211534432e-01
     8    2.783206052958e-01
     9    2.936956064208e-01
    10   -4.664700187646e-04
    11   -1.995988047952e-01
    12   -1.747497040464e-01
    13   -2.275516792738e-04
    14   -1.523904297557e-01
    15    2.261072804093e-02
    16    8.597521449642e-01
    17   -3.902533244647e-01
    18    2.775989207852e-01
    19    2.823651315089e-01
    20   -2.824544184941e-01
    21   -2.835786480061e-01
    22   -2.967578595162e-01
    23    2.973073133777e-01
    24    4.139752285242e-04
    25    1.700048593408e-01
    26    1.838600273238e-01
    27    8.470404517587e-03
    28   -1.566147254684e-01
    29    1.821802529984e-02
    30    8.605147246811e-01
    31   -3.042414846437e-01
    32    2.992566450332e-01
    33   -2.940270461065e-01
    34    2.947392730604e-01
    35   -2.861734916478e-01
    36    2.735565690387e-01
    37   -2.746979151848e-01
    38    6.333453226874e-03
    39   -1.943235717453e-01
    40    1.675799789032e-01
    41   -3.348079774162e-03
    42    1.800375335726e-01
    43    2.057948618521e-02
    44    8.604933348890e-01
    45   -3.508325814573e-01
    46   -2.879178806093e-01
    47    2.926515089873e-01
    48    2.833732256561e-01
    49    2.863261752388e-01
    50   -2.983746476249e-01
    51   -2.737042926285e-01
    52    1.358419209024e-02
    53    1.623504638319e-01
    54   -1.749714869220e-01
    55    7.902699487718e-03
    56    1.885747072298e-01
Sym=X
Ene= 2.625132
Spin=Alpha
Occup=0
     1   -4.380885962750e-04
     2   -1.111294315019e-02
     3    8.871915765836e-03
     4    6.586916291585e-02
     5   -8.240712331621e-02
     6    2.690530858518e-02
     7   -1.400840592201e-01
     8    1.799810072951e-01
     9   -5.615054730473e-02
    10    1.535122381020e-01
    11   -6.867466164380e-02
    12    5.791892128477e-02
    13    5.598926801446e-01
    14    2.431376776245e-02
    15   -2.582567169525e-04
    16   -5.830960805643e-03
    17    3.691913564535e-04
    18   -6.373759328601e-02
    19    8.216257190595e-02
    20    2.415069099933e-02
    21    1.365128546942e-01
    22   -1.834806922207e-01
    23   -5.210655375651e-02
    24    1.563968605780e-01
    25    6.941100577885e-02
    26   -4.842712983497e-02
    27    5.591667305337e-01
    28    2.642403415486e-02
    29   -3.508316846575e-04
    30   -9.556194615926e-03
    31    5.632631793627e-03
    32   -6.459203214021e-02
    33   -8.306611910668e-02
    34   -2.631796732423e-02
    35    1.387845801060e-01
    36    1.826773195489e-01
    37    5.322528960987e-02
    38    1.545687975596e-01
    39   -7.467423906270e-02
    40   -5.644492158986e-02
    41    5.715914800259e-01
    42   -1.943127373030e-02
    43   -1.942020756273e-04
    44   -4.428770011504e-03
    45   -2.333454204506e-03
    46    6.240077758043e-02
    47    8.229815041378e-02
    48   -2.514689790084e-02
    49   -1.354437793806e-01
    50   -1.850148788874e-01
    51    5.279881672203e-02
    52    1.552563832473e-01
    53    7.558654129130e-02
    54    6.289348314743e-02
    55    5.697187376438e-01
    56   -2.002991715491e-02
Sym=X
Ene= 2.633354
Spin=Alpha
Occup=0
     1   -3.842529128988e-04
     2   -9.921124414328e-03
     3    7.859777842500e-03
     4   -5.652845889588e-02
     5   -1.809347321036e-02
     6    8.396316853952e-02
     7    1.322109082179e-01
     8    4.397719052284e-02
     9   -1.909480162234e-01
    10    5.731246047581e-01
    11   -1.476748620384e-02
    12   -5.010877398599e-02
    13   -1.571457567155e-01
    14    7.788931122656e-02
    15   -3.699446314284e-04
    16   -8.702607050577e-03
    17    6.403874642720e-03
    18    5.802956408364e-02
    19    1.880653436746e-02
    20    8.338608345670e-02
    21   -1.331988862218e-01
    22   -4.629079691108e-02
    23   -1.885799430718e-01
    24    5.627310429477e-01
    25    2.041715162180e-02
    26    5.142371911573e-02
    27   -1.520605140583e-01
    28    7.220543124565e-02
    29   -2.013868543791e-04
    30   -4.893753528293e-03
    31   -7.231520329540e-04
    32    5.850881788218e-02
    33   -2.072550180500e-02
    34   -8.437302115332e-02
    35   -1.355236658453e-01
    36    4.795455289641e-02
    37    1.873886407081e-01
    38    5.723204153979e-01
    39   -1.279012089746e-02
    40    5.989805203349e-02
    41   -1.597663198274e-01
    42   -7.795753049590e-02
    43   -1.693229843614e-04
    44   -3.548852794273e-03
    45   -2.563847202667e-03
    46   -5.996530567974e-02
    47    1.982784982565e-02
    48   -8.413405856175e-02
    49    1.366733170560e-01
    50   -4.672413296206e-02
    51    1.857982372508e-01
    52    5.634353960595e-01
    53    1.974320550467e-02
    54   -4.522623410297e-02
    55   -1.539124384855e-01
    56   -7.171756775250e-02
Sym=X
Ene= 2.960389
Spin=Alpha
Occup=0
     1    2.653232213502e-03
     2    1.375825960072e-02
     3   -1.089541903530e-01
     4    1.451018459392e-01
     5   -1.810103939255e-01
     6    5.832535554747e-02
     7    3.379035167148e-01
     8   -3.819668644798e-01
     9    1.461291655962e-01
    10   -7.043601844660e-02
    11   -2.538270497195e-01
    12    1.504315329981e-01
    13   -2.615805733660e-01
    14    4.283596949985e-02
    15    3.599622642219e-02
    16    2.612867375354e-01
    17   -1.050238918777e+00
    18    1.377237641406e-01
    19   -1.845671127752e-01
    20    5.548448196060e-02
    21    5.378288412507e-02
    22   -6.589353729182e-01
    23    3.715621921274e-01
    24   -2.822094676453e-02
    25   -3.413506967909e-02
    26    3.730342420660e-01
    27    2.557553511925e-01
    28   -1.288697179433e-01
    29   -1.404761381153e-01
    30   -1.014759475169e+00
    31    4.070933234595e+00
    32    1.475729795815e-01
    33   -1.885620393429e-01
    34    6.169355154995e-02
    35    1.295847460429e+00
    36   -1.380543533440e+00
    37    1.105587854783e+00
    38   -9.651924556734e-02
    39    5.355460822743e-01
    40   -5.816081618409e-01
    41   -2.928803850045e-02
    42   -6.891259107833e-01
    43    9.995743459505e-02
    44    7.240295577004e-01
    45   -2.905483762097e+00
    46    1.440016183212e-01
    47   -1.879407356572e-01
    48    4.870038461914e-02
    49    1.006886270642e+00
    50   -1.108750025401e+00
    51   -5.853145841342e-01
    52    1.960167736881e-01
    53    3.123010053313e-01
    54   -3.692879038975e-01
    55    3.759914691301e-02
    56    6.099749609083e-01
Sym=X
Ene= 2.961599
Spin=Alpha
Occup=0
     1   -1.523167525787e-01
     2   -1.102197653979e+00
     3    4.416887888811e+00
     4   -1.359058081783e-01
     5   -1.442013907412e-01
     6   -1.506160158459e-01
     7   -1.352184817602e+00
     8   -1.383825572482e+00
     9   -1.371621390366e+00
    10   -2.100008205192e-03
    11    6.503153319268e-01
    12    6.645864041395e-01
    13   -1.321765531247e-02
    14    6.492781922316e-01
    15    4.764698597215e-02
    16    3.503317154012e-01
    17   -1.358854775526e+00
    18   -1.253077473549e-01
    19   -1.378813188795e-01
    20   -1.371540895866e-01
    21   -6.045602498825e-01
    22   -6.363837773415e-01
    23    3.128426862622e-02
    24    2.421381624626e-01
    25    8.004895078222e-02
    26    9.580727041988e-02
    27    1.303160622533e-02
    28   -4.301048664143e-01
    29    4.813423110420e-02
    30    3.427132072436e-01
    31   -1.418464535095e+00
    32   -1.362955918394e-01
    33   -1.384752119412e-01
    34   -1.468604213725e-01
    35   -6.346543095202e-01
    36    2.163121105410e-02
    37   -6.539095757372e-01
    38   -1.324015948484e-01
    39   -4.477432852651e-01
    40    9.737594748676e-02
    41   -2.192285843093e-01
    42    8.344351455909e-02
    43    5.656052525077e-02
    44    4.093571272233e-01
    45   -1.639656769339e+00
    46   -1.257595794508e-01
    47   -1.437374008790e-01
    48   -1.417200832435e-01
    49    1.130503987717e-01
    50   -7.122037126253e-01
    51   -6.995873285171e-01
    52   -1.148589021890e-01
    53    1.280721642928e-01
    54   -4.710820128184e-01
    55    2.150999675205e-01
    56    1.297831009331e-01
Sym=X
Ene= 2.962766
Spin=Alpha
Occup=0
     1    5.975422982351e-03
     2    4.853283348802e-02
     3   -1.419545735416e-01
     4    1.355565192075e-01
     5    4.963849372968e-02
     6   -1.828065500740e-01
     7    3.413920150725e-01
     8    1.521987243970e-01
     9   -3.623350973021e-01
    10    2.451784333466e-01
    11    4.704342893485e-02
    12    1.593329933735e-01
    13   -6.590309728646e-02
    14   -2.576401359321e-01
    15   -1.400138541365e-01
    16   -1.015179673132e+00
    17    4.061749414423e+00
    18    1.459675838557e-01
    19    5.928804230526e-02
    20   -1.893646207123e-01
    21    1.290115584239e+00
    22    1.099306911401e+00
    23   -1.391865313664e+00
    24    8.134651794882e-02
    25   -6.987206568937e-01
    26   -5.863334905476e-01
    27    6.677826649843e-02
    28    5.248233462468e-01
    29    3.559926645726e-02
    30    2.568654886372e-01
    31   -1.025511667297e+00
    32    1.390470419093e-01
    33    5.557674780560e-02
    34   -1.834133879638e-01
    35    6.279295005457e-02
    36    3.683754798301e-01
    37   -6.482443049167e-01
    38   -2.019594205196e-01
    39   -1.232177939958e-01
    40    3.732520420668e-01
    41    1.526253879407e-01
    42   -4.114327321224e-02
    43    1.002729418273e-01
    44    7.250276598822e-01
    45   -2.900368683960e+00
    46    1.457469930862e-01
    47    4.941102466363e-02
    48   -1.862266085708e-01
    49    1.016190818274e+00
    50   -5.813303343624e-01
    51   -1.100828171894e+00
    52   -1.221706632007e-01
    53    6.159129667819e-01
    54   -3.622654767440e-01
    55   -1.539631357695e-01
    56    3.117502590915e-01
Sym=X
Ene= 3.178394
Spin=Alpha
Occup=0
     1    6.850045799745e-05
     2    1.222868422412e-02
     3   -9.754963915725e-03
     4    5.997690941261e-02
     5    1.664197572132e-02
     6   -8.863604305261e-02
     7    4.401063484228e-01
     8    1.450995314982e-01
     9   -5.769254910751e-01
    10    5.024463142983e-01
    11    1.521752448495e-01
    12    4.609178403652e-01
    13   -1.485396330410e-01
    14   -6.066551857780e-01
    15   -8.530744139001e-05
    16   -1.008763809033e-02
    17    8.817163128833e-03
    18    4.886701646327e-02
    19    3.027408339718e-02
    20    8.710411767390e-02
    21    3.552007512881e-01
    22    2.342083345144e-01
    23    5.709176102325e-01
    24   -5.095432738456e-01
    25    2.297699129975e-01
    26    3.612455031086e-01
    27    5.884803088040e-02
    28    6.086200429015e-01
    29    2.036813949209e-05
    30   -2.133351376666e-03
    31    1.025844566123e-03
    32   -5.317870442178e-02
    33   -2.042671734485e-02
    34    3.073356031025e-02
    35   -3.521450239413e-01
    36   -1.430340355395e-01
    37    2.128012120560e-01
    38    1.885694712165e-01
    39   -1.474083670511e-01
    40   -3.687425440700e-01
    41   -2.517686310851e-01
    42    2.168671918724e-01
    43    4.116486759590e-06
    44    1.025377745097e-04
    45   -1.310015185746e-04
    46   -6.452553035126e-02
    47   -3.358578130860e-02
    48   -3.086879484827e-02
    49   -4.358345034359e-01
    50   -2.295992688156e-01
    51   -2.063541600656e-01
    52   -1.772130933367e-01
    53   -2.360973659592e-01
    54   -4.562083099189e-01
    55    3.395592081542e-01
    56   -2.201298908570e-01
Sym=X
Ene= 3.182305
Spin=Alpha
Occup=0
     1   -3.462750663069e-05
     2   -5.829916780299e-03
     3    4.669144292235e-03
     4    3.724371020937e-03
     5   -2.485107117774e-02
     6    2.686075725016e-02
     7    5.106235464378e-03
     8   -1.764982037081e-01
     9    1.674342990453e-01
    10   -1.450379995451e-01
    11   -1.818342982061e-01
    12    1.907420754674e-03
    13   -9.646126793610e-02
    14    1.768594103019e-01
    15    1.135482240702e-04
    16    3.528856870026e-03
    17   -5.077223173452e-03
    18    5.612221952323e-02
    19   -7.955661317097e-02
    20   -2.541395070098e-02
    21    3.640652230222e-01
    22   -5.370918364434e-01
    23   -1.656955387558e-01
    24    1.480565122085e-01
    25   -5.557748809941e-01
    26    3.840173728254e-01
    27    4.563959262807e-01
    28   -1.770155412759e-01
    29    1.203280310035e-04
    30    3.622633203125e-03
    31   -5.307551555582e-03
    32   -5.415493982745e-02
    33    2.639327741015e-02
    34    8.252124918892e-02
    35   -3.690549522779e-01
    36    1.783784033872e-01
    37    5.398032154244e-01
    38    4.735114450991e-01
    39    1.817597019326e-01
    40   -3.805974617320e-01
    41   -9.670834008106e-02
    42    5.678673908905e-01
    43   -1.989880695622e-04
    44   -1.318860742377e-03
    45    5.714563836745e-03
    46   -1.986465863189e-03
    47    8.043063061765e-02
    48   -8.162928635992e-02
    49   -8.886149154469e-03
    50    5.361935061609e-01
    51   -5.406919359093e-01
    52   -4.745100232917e-01
    53    5.581125475682e-01
    54   -7.111352638167e-03
    55   -2.664956463098e-01
    56   -5.654751339867e-01
Sym=X
Ene= 3.186050
Spin=Alpha
Occup=0
     1    7.645716106966e-05
     2    1.223298827090e-02
     3   -9.818522252533e-03
     4   -7.234825236152e-02
     5    8.605545858298e-02
     6   -2.575811524822e-02
     7   -4.392553795652e-01
     8    5.844328522065e-01
     9   -1.368673268178e-01
    10    1.242549863323e-01
    11    6.048967456430e-01
    12   -4.564775475204e-01
    13    5.220320454489e-01
    14   -1.419707163169e-01
    15    2.987592423029e-05
    16   -2.124461892810e-03
    17    5.424503210280e-04
    18    5.371086836127e-02
    19   -3.382036308848e-02
    20    2.206811716759e-02
    21    3.582151359585e-01
    22   -2.158467206626e-01
    23    1.391247822527e-01
    24   -1.230698212841e-01
    25   -2.299405088702e-01
    26    3.725715889025e-01
    27    2.865440993690e-01
    28    1.466938648181e-01
    29   -1.144159016126e-04
    30   -1.014614215161e-02
    31    9.318904735261e-03
    32   -5.804615158252e-02
    33   -8.779893926148e-02
    34   -3.746434063327e-02
    35   -3.551137631579e-01
    36   -5.905890030626e-01
    37   -2.164539936158e-01
    38   -1.907689438681e-01
    39   -6.028690444397e-01
    40   -3.800328586629e-01
    41   -4.752503805494e-01
    42   -2.408377761746e-01
    43    3.348281323839e-07
    44   -7.404072725316e-05
    45    7.277341665616e-07
    46    6.780427136566e-02
    47    3.354255477382e-02
    48    3.417116289180e-02
    49    4.434851930217e-01
    50    2.221909883838e-01
    51    2.213114886161e-01
    52    1.891828346376e-01
    53    2.267823845959e-01
    54    4.611029997641e-01
    55   -3.377954826180e-01
    56    2.343509179362e-01
[5D]

======= END OF MOLDEN-FORMATTED INPUT FILE =======


        *************************************************************
        *                                                           *
        *  Thank you very much for using Q-Chem.  Have a nice day.  *
        *                                                           *
        *************************************************************


0 sent ACK to 0 
now end server 0 ... 
