/home/vladimir/qchem/bin/parallel.csh,  , N4.in, 1, 0, /home/vladimir/scratch/qchem8417/
MPIRUN in parallel.csh is mpirun
P4_RSHCOMMAND in parallel.csh is ssh
QCOUTFILE is stdout
Q-Chem machineFile is /home/vladimir/qchem/bin/mpi/machines 
Process 0 of 1 is on He - thread support 0
initial socket setup ...start
initial socket setup ...done 
now start server 0 ... 
He 127.0.1
Q-Chem Developer Version! Running on 127.0.1.*
                  Welcome to Q-Chem
     A Quantum Leap Into The Future Of Chemistry


 Q-Chem 4.4, Q-Chem, Inc., Pleasanton, CA (2016)

 Y. Shao,  Z. Gan,  E. Epifanovsky,  A. T. B. Gilbert,  M. Wormit,  
 J. Kussmann,  A. W. Lange,  A. Behn,  J. Deng,  X. Feng,  D. Ghosh,  
 M. Goldey,  P. R. Horn,  L. D. Jacobson,  I. Kaliman,  F.Rob,  
 R. Z. Khaliullin,  T. Kus,  A. Landau,  J. Liu,  E. I. Proynov,  Y. M. Rhee,  
 R. M. Richard,  M. A. Rohrdanz,  R. P. Steele,  E. J. Sundstrom,  
 H. L. Woodcock III,  P. M. Zimmerman,  D. Zuev,  B. Albrecht,  E. Alguire,  
 B. Austin,  S. A. Baeppler,  G. J. O. Beran,  Y. A. Bernard,  E. Berquist,  
 K. Brandhorst,  K. B. Bravaya,  S. T. Brown,  D. Casanova,  C.-M. Chang,  
 Y. Chen,  S. H. Chien,  K. D. Closser,  M. P. Coons,  D. L. Crittenden,  
 S. Dasgupta,  M. Diedenhofen,  R. A. DiStasio Jr.,  H. Do,  A. D. Dutoi,  
 R. G. Edgar,  P.-T. Fang,  S. Fatehi,  Q. Feng,  L. Fusti-Molnar,  
 A. Ghysels,  A. Golubeva-Zadorozhnaya,  J. Gomes,  A. Gunina,  
 M. W. D. Hanson-Heine,  P. H. P. Harbach,  A. W. Hauser,  J. E. Herr,  
 E. G. Hohenstein,  Z. C. Holden,  K. Hui,  T.-C. Jagau,  H. Ji,  B. Kaduk,  
 K. Khistyaev,  Jaehoon Kim,  Jihan Kim,  R. A. King,  P. Klunzinger,  
 K. Koh,  D. Kosenkov,  T. Kowalczyk,  C. M. Krauter,  A. Kunitsa,  
 K. U. Lao,  A. Laurent,  K. V. Lawler,  J. Lee,  D. Lefrancois,  S. Lehtola,  
 S. V. Levchenko,  C. Y. Lin,  Y.-S. Lin,  F. Liu,  E. Livshits,  
 R. C. Lochan,  A. Luenser,  P. Manohar,  S. F. Manzer,  S.-P. Mao,  Y. Mao,  
 N. Mardirossian,  A. V. Marenich,  L. A. Martinez-Martinez,  S. A. Maurer,  
 N. J. Mayhall,  J.-M. Mewes,  A. F. Morrison,  K. Nanda,  T. S. Nguyen-Beck,  
 C. M. Oana,  R. Olivares-Amaya,  D. P. O'Neill,  J. A. Parkhill,  
 T. M. Perrine,  R. Peverati,  P. A. Pieniazek,  F. Plasser,  A. Prociuk,  
 D. R. Rehn,  E. Rosta,  N. J. Russ,  N. Sergueev,  S. M. Sharada,  
 S. Sharma,  D. W. Small,  A. Sodt,  T. Stauch,  T. Stein,  D. Stuck,  
 Y.-C. Su,  A. J. W. Thom,  T. Tsuchimochi,  L. Vogt,  O. Vydrov,  T. Wang,  
 M. A. Watson,  J. Wenzel,  A. White,  C. F. Williams,  V. Vanovschi,  
 K. Yao,  S. Yeganeh,  S. R. Yost,  Z.-Q. You,  I. Y. Zhang,  X. Zhang,  
 Y. Zhao,  B. R. Brooks,  G. K. L. Chan,  D. M. Chipman,  C. J. Cramer,  
 W. A. Goddard III,  M. S. Gordon,  W. J. Hehre,  A. Klamt,  
 H. F. Schaefer III,  M. W. Schmidt,  C. D. Sherrill,  D. G. Truhlar,  
 A. Warshel,  X. Xu,  A. Aspuru-Guzik,  R. Baer,  A. T. Bell,  N. A. Besley,  
 J.-D. Chai,  A. Dreuw,  B. D. Dunietz,  T. R. Furlani,  S. R. Gwaltney,  
 C.-P. Hsu,  Y. Jung,  J. Kong,  D. S. Lambrecht,  W. Liang,  C. Ochsenfeld,  
 V. A. Rassolov,  L. V. Slipchenko,  J. E. Subotnik,  T. Van Voorhis,  
 J. M. Herbert,  A. I. Krylov,  P. M. W. Gill,  M. Head-Gordon

 Contributors to earlier versions of Q-Chem not listed above: 
 R. D. Adamson,  J. Baker,  E. F. C. Byrd,  A. K. Chakraborty,  C.-L. Cheng,  
 H. Dachsel,  R. J. Doerksen,  G. Hawkins,  A. Heyden,  S. Hirata,  
 G. Kedziora,  F. J. Keil,  C. Kelley,  P. P. Korambath,  W. Kurlancheek,  
 A. M. Lee,  M. S. Lee,  D. Liotard,  I. Lotan,  P. E. Maslen,  N. Nair,  
 D. Neuhauser,  R. Olson,  B. Peters,  J. Ritchie,  N. E. Schultz,  
 N. Shenvi,  A. C. Simmonett,  K. S. Thanthiriwatte,  Q. Wu,  W. Zhang

 Please cite Q-Chem as follows:
 Y. Shao et al., Mol. Phys. 113, 184-215 (2015)
 DOI: 10.1080/00268976.2014.952696

 Q-Chem 4.4.1 for Intel X86 EM64T Linux

 Parts of Q-Chem use Armadillo 5.200.1 (Boston Tea Smuggler).
 http://arma.sourceforge.net/

 Q-Chem begins on Sat May  6 09:11:03 2017  


Host: 0

     Scratch files written to /home/vladimir/scratch/qchem8417//
 Parallel job on  1  processors

Checking the input file for inconsistencies... 	...done.

--------------------------------------------------------------
User input:
--------------------------------------------------------------
$comment0
$end

$rem
SYMMETRY              off
BASIS                 cc-pVDZ
METHOD                HF
SCF_CONVERGENCE       8
MOLDEN_FORMAT         true
PRINT_ORBITALS        1000
$end

$molecule
   0 1
   N       0.5200      0.5300      0.5100
   N      -0.5200     -0.5200      0.5200
   N      -0.5200      0.5200     -0.5200
   N       0.5200     -0.5200     -0.5200
$end
--------------------------------------------------------------
 ----------------------------------------------------------------
             Standard Nuclear Orientation (Angstroms)
    I     Atom           X                Y                Z
 ----------------------------------------------------------------
    1      N      -0.6425116454    -0.0000000000    -0.6312616617
    2      N       0.7356992061     0.4245782221    -0.3080462814
    3      N      -0.3073581092     0.4245782221     0.7288873892
    4      N       0.2141705485    -0.8491564442     0.2104205539
 ----------------------------------------------------------------
 Molecular Point Group                 C1    NOp =  1
 Largest Abelian Subgroup              C1    NOp =  1
 Nuclear Repulsion Energy =   105.7779404621 hartrees
 There are       14 alpha and       14 beta electrons
 Requested basis set is cc-pVDZ
 There are 24 shells and 56 basis functions

 Total QAlloc Memory Limit   2000 MB
 Mega-Array Size        61 MB
 MEM_STATIC part        62 MB

                       Distance Matrix (Angstroms)
             N (  1)   N (  2)   N (  3)
   N (  2)  1.477904
   N (  3)  1.463762  1.470782
   N (  4)  1.470850  1.470782  1.470782

 A cutoff of  1.0D-11 yielded    300 shell pairs
 There are      1660 function pairs (      1914 Cartesian)

 -------------------------------------------------------
 OpenMP Integral Computing Module                       
 Release: version 1.0, May 2013, Q-Chem Inc. Pittsburgh 
 -------------------------------------------------------
 Integral Job Info:
 Integral job number is                      11
 Integral operator is                         1
 short-range coefficients                     0
 long-range coefficients              100000000
 Omega coefficients                           0
 if combine SR and LR in K                    0
 Integral screening is                        0
 Integral computing path is                   2
 max size of driver memory is            800000
 size of driver memory is                593474
 size of scratch memory is              3179904
 max col of scratch BK array               1296
 max len of scratch array in speh3          155
 max len of scratch index in speh4           18
 max int batch size is                      520
 min int batch size is                       52
 fixed nKL is                                52
 max L of basis functions is                  2
 order of int derivative is                   0
 number of shells is                         24
 number of basis is                          60
 number of cartesian basis is                60
 number of contracted shell pairs           300
 number of primitive shell pairs           2316
 maxK2 (contraction) of shell pair           49
 max number of K2 of shell pair               1
 max number of CS2 of shell pair             32
 max number of PS2 of shell pair            588
 mem total for path MDJ                   22346
 -------------------------------------------------------
 Smallest overlap matrix eigenvalue = 1.03E-02

 Scale SEOQF with 1.000000e+00/1.000000e+00/1.000000e+00

 Standard Electronic Orientation quadrupole field applied
 Nucleus-field energy     =     0.0000000001 hartrees
 Guess from superposition of atomic densities
 Warning:  Energy on first SCF cycle will be non-variational
 A restricted Hartree-Fock SCF calculation will be
 performed using Pulay DIIS extrapolation
 SCF converges when DIIS error is below 1.0E-08
 ---------------------------------------
  Cycle       Energy         DIIS Error
 ---------------------------------------
    1    -218.4843369222      1.15E-01
    2    -217.4473659068      1.65E-02
    3    -217.5224878096      6.04E-03
    4    -217.5349721120      7.87E-04
    5    -217.5356603488      2.01E-04
    6    -217.5357178971      5.05E-05
    7    -217.5357190367      2.28E-05
    8    -217.5357192568      1.92E-06
    9    -217.5357192594      4.17E-07
   10    -217.5357192595      2.64E-07
   11    -217.5357192595      5.02E-08
   12    -217.5357192595      1.18E-08
   13    -217.5357192595      1.81E-09 Convergence criterion met
 ---------------------------------------
 SCF time:  CPU 3.60 s  wall 3.62 s
 SCF   energy in the final basis set = -217.5357192595
 Total energy in the final basis set = -217.5357192595

 --------------------------------------------------------------

                    Orbital Energies (a.u.)
 --------------------------------------------------------------

 Alpha MOs
 -- Occupied --
-15.752 -15.751 -15.751 -15.751  -1.665  -1.050  -1.046  -1.043
 -0.686  -0.571  -0.570  -0.569  -0.537  -0.531
 -- Virtual --
  0.195   0.197   0.199   0.273   0.276   0.279   0.809   0.810
  0.811   0.877   0.926   0.928   0.959   0.960   0.960   1.069
  1.069   1.069   1.108   1.484   1.486   1.488   1.764   1.764
  1.765   1.910   1.916   2.326   2.329   2.336   2.339   2.342
  2.345   2.494   2.625   2.633   2.960   2.962   2.963   3.178
  3.182   3.186
 --------------------------------------------------------------


                        RESTRICTED (RHF) MOLECULAR ORBITAL COEFFICIENTS
                         1         2         3         4         5         6
 eigenvalues:        -15.752   -15.751   -15.751   -15.751    -1.665    -1.050
   1  N 1   s        0.50324  -0.60864  -0.46920  -0.38907  -0.09516   0.11479
   2  N 1   s        0.00829  -0.00926  -0.00712  -0.00590   0.20265  -0.26426
   3  N 1   s       -0.00139   0.00417   0.00322   0.00266   0.12215  -0.33584
   4  N 1   px       0.00129  -0.00111  -0.00093  -0.00083   0.09084   0.08939
   5  N 1   py       0.00000   0.00005  -0.00012   0.00007   0.00001  -0.02687
   6  N 1   pz       0.00128  -0.00125  -0.00088  -0.00068   0.09135  -0.09883
   7  N 1   px      -0.00088   0.00154   0.00088   0.00049   0.02920   0.00405
   8  N 1   py       0.00000   0.00018  -0.00048   0.00030  -0.00000  -0.00839
   9  N 1   pz      -0.00088   0.00098   0.00105   0.00109   0.02906  -0.05565
  10  N 1   d 1      0.00000  -0.00008   0.00017  -0.00007  -0.00008  -0.00088
  11  N 1   d 2     -0.00000  -0.00003   0.00014  -0.00014   0.00008  -0.00629
  12  N 1   d 3     -0.00008   0.00007  -0.00008  -0.00024   0.00622  -0.02251
  13  N 1   d 4     -0.00028  -0.00020  -0.00020  -0.00014   0.02168  -0.00134
  14  N 1   d 5     -0.00014  -0.00020  -0.00002   0.00001   0.01086   0.01119
  15  N 2   s        0.50501   0.77794  -0.32412  -0.17301  -0.09452  -0.12299
  16  N 2   s        0.00830   0.01181  -0.00491  -0.00262   0.20136   0.28291
  17  N 2   s       -0.00136  -0.00534   0.00222   0.00120   0.12087   0.35991
  18  N 2   px      -0.00148  -0.00168   0.00080   0.00038  -0.10387   0.06693
  19  N 2   py      -0.00086  -0.00102   0.00032   0.00031  -0.06019  -0.09413
  20  N 2   pz       0.00062   0.00079  -0.00024  -0.00005   0.04436   0.04795
  21  N 2   px       0.00099   0.00198  -0.00044  -0.00043  -0.03301  -0.00878
  22  N 2   py       0.00058   0.00099  -0.00082   0.00013  -0.01920  -0.04732
  23  N 2   pz      -0.00042  -0.00057   0.00056   0.00063   0.01400   0.02808
  24  N 2   d 1     -0.00021   0.00021  -0.00014   0.00006   0.01647   0.00722
  25  N 2   d 2      0.00009  -0.00004   0.00016   0.00001  -0.00699  -0.01116
  26  N 2   d 3      0.00011  -0.00013   0.00002  -0.00011  -0.00810   0.00176
  27  N 2   d 4      0.00016  -0.00009   0.00013   0.00023  -0.01215  -0.00429
  28  N 2   d 5     -0.00012   0.00019   0.00017  -0.00010   0.00946  -0.01946
  29  N 3   s        0.49134  -0.13306  -0.01186   0.85787  -0.09581   0.06750
  30  N 3   s        0.00813  -0.00203  -0.00018   0.01305   0.20394  -0.15545
  31  N 3   s       -0.00136   0.00091   0.00011  -0.00585   0.12347  -0.19759
  32  N 3   px       0.00061   0.00001   0.00002   0.00082   0.04364   0.16022
  33  N 3   py      -0.00084   0.00023  -0.00011  -0.00111  -0.06126   0.01178
  34  N 3   pz      -0.00145   0.00032   0.00010  -0.00192  -0.10560   0.06449
  35  N 3   px      -0.00042   0.00067   0.00015  -0.00076   0.01415   0.04393
  36  N 3   py       0.00058   0.00003  -0.00049   0.00120  -0.01965   0.01330
  37  N 3   pz       0.00101  -0.00022   0.00029   0.00204  -0.03400   0.03685
  38  N 3   d 1      0.00009   0.00005   0.00013  -0.00009  -0.00697  -0.01046
  39  N 3   d 2     -0.00022   0.00007  -0.00008   0.00025   0.01676  -0.00826
  40  N 3   d 3     -0.00016   0.00006   0.00021   0.00020   0.01236  -0.01757
  41  N 3   d 4      0.00016   0.00025   0.00002  -0.00013  -0.01193  -0.02315
  42  N 3   d 5      0.00003  -0.00011   0.00013  -0.00005  -0.00229   0.00866
  43  N 4   s        0.49562  -0.04277   0.81843  -0.27913  -0.09515  -0.06034
  44  N 4   s        0.00818  -0.00065   0.01244  -0.00424   0.20263   0.13876
  45  N 4   s       -0.00134   0.00028  -0.00559   0.00194   0.12216   0.17684
  46  N 4   px      -0.00043   0.00017  -0.00053   0.00016  -0.03076   0.16869
  47  N 4   py       0.00169  -0.00007   0.00213  -0.00069   0.12144   0.04097
  48  N 4   pz      -0.00042   0.00004  -0.00048   0.00032  -0.02995  -0.01840
  49  N 4   px       0.00029   0.00055   0.00057  -0.00026  -0.00971   0.04923
  50  N 4   py      -0.00115   0.00026  -0.00219   0.00089   0.03885   0.03024
  51  N 4   pz       0.00029   0.00000   0.00075   0.00035  -0.00971  -0.01012
  52  N 4   d 1      0.00012  -0.00023  -0.00012   0.00011  -0.00974   0.02841
  53  N 4   d 2      0.00013   0.00003  -0.00021  -0.00018  -0.00953  -0.00682
  54  N 4   d 3      0.00014   0.00004  -0.00011   0.00011  -0.01055  -0.00192
  55  N 4   d 4     -0.00003   0.00011   0.00007   0.00008   0.00241  -0.00972
  56  N 4   d 5      0.00023   0.00012  -0.00021   0.00015  -0.01799  -0.01310
                         7         8         9        10        11        12
 eigenvalues:         -1.046    -1.043    -0.686    -0.571    -0.570    -0.569
   1  N 1   s       -0.03210   0.11449   0.04695   0.04660  -0.04946  -0.04550
   2  N 1   s        0.07387  -0.26344  -0.09758  -0.12213   0.12982   0.11967
   3  N 1   s        0.09442  -0.33852  -0.21920  -0.15277   0.16161   0.14810
   4  N 1   px       0.00117  -0.09530   0.20395   0.00811  -0.14784  -0.26875
   5  N 1   py      -0.18475  -0.02487  -0.00000  -0.10887  -0.21291   0.11916
   6  N 1   pz       0.00046   0.09309   0.20038   0.27722  -0.15178  -0.00394
   7  N 1   px       0.00709  -0.05533   0.10737   0.03410  -0.11308  -0.17746
   8  N 1   py      -0.05911  -0.00816  -0.00000  -0.05988  -0.11720   0.06562
   9  N 1   pz       0.00712   0.00548   0.10505   0.18175  -0.11486  -0.03128
  10  N 1   d 1     -0.02479  -0.00600   0.00009  -0.00521  -0.01780   0.01477
  11  N 1   d 2     -0.02463  -0.00067  -0.00010  -0.01381  -0.01883   0.00546
  12  N 1   d 3     -0.00225   0.02122   0.00886   0.02355   0.00125   0.01648
  13  N 1   d 4      0.00303  -0.00075   0.03245   0.00422  -0.00991  -0.00378
  14  N 1   d 5     -0.00370  -0.01381   0.01652  -0.00552   0.00216  -0.01702
  15  N 2   s        0.08735   0.06831   0.04696  -0.07914  -0.01546  -0.01536
  16  N 2   s       -0.20102  -0.15712  -0.09754   0.20771   0.04055   0.04046
  17  N 2   s       -0.25667  -0.20186  -0.21980   0.25905   0.05065   0.04986
  18  N 2   px       0.05699   0.06169  -0.23121   0.24412   0.19796   0.06542
  19  N 2   py      -0.13583   0.01176  -0.13339   0.16521  -0.15262   0.16879
  20  N 2   pz      -0.06091   0.15836   0.09678  -0.18039   0.07388   0.19616
  21  N 2   px       0.03954   0.03679  -0.12100   0.19192   0.11945   0.04771
  22  N 2   py      -0.03104   0.01352  -0.06993   0.12368  -0.07690   0.09932
  23  N 2   pz      -0.02854   0.04402   0.05052  -0.12336   0.03602   0.10343
  24  N 2   d 1      0.01336  -0.00820   0.02474  -0.00738   0.01282  -0.01757
  25  N 2   d 2     -0.00645  -0.01017  -0.01037   0.00818  -0.01129  -0.01351
  26  N 2   d 3     -0.00857   0.01634  -0.01209  -0.00202   0.01486   0.01637
  27  N 2   d 4      0.01405  -0.02263  -0.01787   0.00961   0.00031  -0.01582
  28  N 2   d 5     -0.02099  -0.01064   0.01430  -0.00207  -0.02330   0.00837
  29  N 3   s        0.08690  -0.12288   0.04692   0.01538  -0.01297   0.07897
  30  N 3   s       -0.20003   0.28296  -0.09759  -0.04022   0.03407  -0.20736
  31  N 3   s       -0.25585   0.36323  -0.21852  -0.05057   0.04225  -0.25745
  32  N 3   px      -0.06080   0.04722   0.09855  -0.20399   0.08167   0.17270
  33  N 3   py      -0.13714  -0.09384  -0.13615  -0.16850  -0.17008  -0.16856
  34  N 3   pz       0.05781   0.07117  -0.23373  -0.06913   0.20428  -0.24713
  35  N 3   px      -0.02835   0.02768   0.05211  -0.10731   0.04089   0.11967
  36  N 3   py      -0.03154  -0.04775  -0.07169  -0.09934  -0.08853  -0.12722
  37  N 3   pz       0.03989  -0.00727  -0.12328  -0.04890   0.12272  -0.19442
  38  N 3   d 1     -0.00646  -0.01115  -0.01053   0.01373  -0.01167  -0.00824
  39  N 3   d 2      0.01350   0.00692   0.02502   0.01753   0.01322   0.00715
  40  N 3   d 3     -0.01396  -0.01820   0.01842   0.00140  -0.02900   0.00098
  41  N 3   d 4      0.01405  -0.00413  -0.01818   0.01673  -0.00032  -0.00878
  42  N 3   d 5     -0.01816  -0.00828  -0.00353  -0.01852  -0.00031   0.00230
  43  N 4   s       -0.14216  -0.05888   0.04695   0.01691   0.07788  -0.01836
  44  N 4   s        0.32718   0.13563  -0.09757  -0.04422  -0.20445   0.04837
  45  N 4   s        0.41812   0.17378  -0.21919  -0.05570  -0.25443   0.05948
  46  N 4   px      -0.06603  -0.01823  -0.06803  -0.26476  -0.03387   0.00653
  47  N 4   py      -0.02721   0.03946   0.26953   0.00760   0.34137  -0.01517
  48  N 4   pz      -0.06445   0.17134  -0.06678  -0.00222  -0.01572   0.27649
  49  N 4   px      -0.03129  -0.01006  -0.03553  -0.14819  -0.03596   0.00780
  50  N 4   py       0.03169   0.02936   0.14161   0.01816   0.25405  -0.02440
  51  N 4   pz      -0.03066   0.05110  -0.03530  -0.00456  -0.02450   0.15712
  52  N 4   d 1     -0.01030  -0.00683  -0.01454  -0.02776   0.00059   0.00067
  53  N 4   d 2     -0.01003   0.02869  -0.01431  -0.00051   0.00257   0.02854
  54  N 4   d 3      0.00382  -0.01015  -0.01564  -0.00666  -0.00778  -0.01680
  55  N 4   d 4      0.00849  -0.00990   0.00361   0.00092   0.00064  -0.00188
  56  N 4   d 5      0.00696  -0.00808  -0.02702   0.01593  -0.01312  -0.00200
                        13        14        15        16        17        18
 eigenvalues:         -0.537    -0.531     0.195     0.197     0.199     0.273
   1  N 1   s       -0.00103   0.00087  -0.00344  -0.00062   0.00339   0.08397
   2  N 1   s        0.00326  -0.00287   0.00634   0.00114  -0.00620  -0.14329
   3  N 1   s        0.00221  -0.00171   0.03837   0.00698  -0.03826  -1.09150
   4  N 1   px      -0.16354   0.16770   0.23399   0.04136  -0.22079  -0.25617
   5  N 1   py       0.22923   0.23394   0.30529  -0.01049   0.31499  -0.00729
   6  N 1   pz       0.15935  -0.16462  -0.21399  -0.03775   0.20112  -0.15479
   7  N 1   px      -0.11055   0.11446   0.35105   0.06195  -0.33046  -0.82093
   8  N 1   py       0.15375   0.15855   0.44757  -0.01368   0.46004  -0.04436
   9  N 1   pz       0.10602  -0.11077  -0.30604  -0.05376   0.28563  -0.34115
  10  N 1   d 1      0.00268   0.02575  -0.00943  -0.00096   0.00217   0.00866
  11  N 1   d 2      0.02546   0.00288   0.00278   0.00113  -0.00865  -0.00577
  12  N 1   d 3      0.02414  -0.01061   0.00089   0.00054  -0.00754  -0.01702
  13  N 1   d 4     -0.00820  -0.00798   0.00501   0.00042   0.00324  -0.02064
  14  N 1   d 5      0.00218   0.02230  -0.00821  -0.00073  -0.00439  -0.00151
  15  N 2   s        0.00070   0.00048   0.00289   0.00047  -0.00073  -0.10559
  16  N 2   s       -0.00166  -0.00172  -0.00524  -0.00071   0.00141   0.17949
  17  N 2   s       -0.00261  -0.00064  -0.03265  -0.00614   0.00781   1.37457
  18  N 2   px       0.15134  -0.12154   0.21027   0.16297   0.01415  -0.32710
  19  N 2   py      -0.29557  -0.01920  -0.06760  -0.35047  -0.14477  -0.14007
  20  N 2   pz      -0.03623  -0.30995   0.36585  -0.10318  -0.15644   0.10787
  21  N 2   px       0.10111  -0.08287   0.31630   0.24002   0.01699  -0.98047
  22  N 2   py      -0.19802  -0.01331  -0.09411  -0.51065  -0.21571  -0.34387
  23  N 2   pz      -0.02416  -0.20944   0.53447  -0.15012  -0.23666   0.24431
  24  N 2   d 1      0.00328   0.00854   0.00277   0.00170   0.00002   0.01777
  25  N 2   d 2     -0.01987  -0.00182  -0.00176   0.00763   0.00455  -0.01238
  26  N 2   d 3     -0.01658  -0.00733   0.00303   0.00697   0.00289  -0.01126
  27  N 2   d 4      0.00733   0.03056   0.01038  -0.00281  -0.00514  -0.01855
  28  N 2   d 5     -0.02508   0.01687   0.00753   0.00474  -0.00019   0.00112
  29  N 3   s       -0.00055  -0.00066   0.00061   0.00048  -0.00270   0.03702
  30  N 3   s        0.00191   0.00153  -0.00113  -0.00072   0.00484  -0.06332
  31  N 3   s        0.00087   0.00248  -0.00674  -0.00632   0.03104  -0.48102
  32  N 3   px      -0.30124  -0.03959  -0.16266   0.09590   0.36671  -0.16076
  33  N 3   py      -0.02247  -0.28182  -0.12693   0.36018  -0.07386   0.02833
  34  N 3   pz      -0.11053   0.15120   0.00893  -0.16533   0.18077   0.07294
  35  N 3   px      -0.20268  -0.02697  -0.22970   0.14116   0.53693  -0.59499
  36  N 3   py      -0.01471  -0.19110  -0.18178   0.52934  -0.11278   0.03936
  37  N 3   pz      -0.07360   0.10275   0.01668  -0.24035   0.25590   0.17228
  38  N 3   d 1     -0.00259  -0.01947   0.00376  -0.00818  -0.00238   0.00644
  39  N 3   d 2      0.00859   0.00210  -0.00014  -0.00230   0.00333  -0.01279
  40  N 3   d 3      0.01682  -0.01197  -0.00098  -0.00049   0.00488  -0.01435
  41  N 3   d 4      0.03060   0.00712  -0.00330   0.00301   0.00833  -0.01606
  42  N 3   d 5      0.00267  -0.02689   0.00139  -0.00895   0.00599   0.00419
  43  N 4   s        0.00122  -0.00102  -0.00007  -0.00033   0.00003  -0.01507
  44  N 4   s       -0.00312   0.00260   0.00007   0.00029  -0.00001   0.02550
  45  N 4   s       -0.00408   0.00346   0.00104   0.00548  -0.00057   0.19707
  46  N 4   px       0.32098  -0.00772  -0.25039  -0.29626  -0.17414  -0.13489
  47  N 4   py       0.08429   0.07127  -0.09909   0.00579  -0.10741   0.02019
  48  N 4   pz      -0.01117   0.31605  -0.14776   0.31024  -0.25455  -0.00585
  49  N 4   px       0.21513  -0.00509  -0.35732  -0.43296  -0.25932  -0.53624
  50  N 4   py       0.05719   0.04774  -0.14131   0.01090  -0.16069   0.02170
  51  N 4   pz      -0.00765   0.21420  -0.21207   0.45460  -0.38111  -0.00821
  52  N 4   d 1      0.02519  -0.00970   0.00127   0.00681  -0.00015   0.01597
  53  N 4   d 2     -0.00978   0.02417  -0.00048  -0.00710   0.00225  -0.00843
  54  N 4   d 3     -0.01186   0.00329  -0.00173  -0.00736   0.00010  -0.00948
  55  N 4   d 4     -0.02163  -0.02149  -0.00813   0.00054  -0.01025  -0.01370
  56  N 4   d 5     -0.00449  -0.01230  -0.00053   0.00439  -0.00254  -0.00606
                        19        20        21        22        23        24
 eigenvalues:          0.276     0.279     0.809     0.810     0.811     0.877
   1  N 1   s        0.02199  -0.08634   0.03233   0.01045   0.03083  -0.03593
   2  N 1   s       -0.03714   0.14448   0.13390   0.04541   0.14114   0.37243
   3  N 1   s       -0.28929   1.14943  -1.31538  -0.44230  -1.36143  -0.47909
   4  N 1   px      -0.05617   0.14449   0.50690   0.12834   0.23646  -0.26828
   5  N 1   py       0.11545   0.02257  -0.04643   0.26801  -0.04227   0.00002
   6  N 1   pz      -0.05142   0.27719   0.22961   0.11677   0.50948  -0.27408
   7  N 1   px      -0.15649   0.34530  -1.12340  -0.29642  -0.62612   0.31870
   8  N 1   py       0.49940   0.08468   0.08906  -0.49767   0.07575   0.00002
   9  N 1   pz      -0.15190   0.88038  -0.60413  -0.27922  -1.12865   0.32874
  10  N 1   d 1     -0.01444   0.00533  -0.00866  -0.05983   0.02971  -0.00066
  11  N 1   d 2     -0.01362  -0.00964   0.03175  -0.05752  -0.01401   0.00072
  12  N 1   d 3     -0.00759  -0.00774   0.04113  -0.02302  -0.06459  -0.01176
  13  N 1   d 4      0.00217   0.02057  -0.05076   0.00393  -0.05647  -0.04701
  14  N 1   d 5     -0.01349   0.01564  -0.04889  -0.03877   0.00905  -0.02458
  15  N 2   s        0.05119  -0.03306  -0.03337  -0.02531   0.01812  -0.03608
  16  N 2   s       -0.08636   0.05509  -0.14419  -0.10868   0.08356   0.37150
  17  N 2   s       -0.67308   0.44086   1.40206   1.06417  -0.80611  -0.46422
  18  N 2   px       0.08955  -0.07123   0.55379   0.26514  -0.16068   0.31693
  19  N 2   py       0.17827  -0.02462   0.11575   0.39392  -0.13479   0.18173
  20  N 2   pz      -0.06293   0.13268  -0.12530  -0.05252   0.34120  -0.13642
  21  N 2   px       0.18030  -0.16453  -1.25156  -0.65804   0.42628  -0.38120
  22  N 2   py       0.64237  -0.02276  -0.34215  -0.82812   0.32235  -0.21895
  23  N 2   pz      -0.17571   0.55134   0.32754   0.16736  -0.68280   0.16537
  24  N 2   d 1     -0.00717   0.01184   0.03418   0.05395  -0.00328  -0.03557
  25  N 2   d 2     -0.00779  -0.00599   0.01208  -0.04534   0.01899   0.01496
  26  N 2   d 3     -0.00498  -0.01030  -0.00959  -0.04951  -0.01495   0.01759
  27  N 2   d 4      0.00878   0.01617  -0.01952   0.01439   0.08770   0.02487
  28  N 2   d 5     -0.02195   0.00943   0.07865  -0.02922   0.02210  -0.02052
  29  N 3   s        0.04778   0.10723   0.02073  -0.02373  -0.03367  -0.03578
  30  N 3   s       -0.08086  -0.18007   0.08583  -0.10500  -0.14779   0.37347
  31  N 3   s       -0.62847  -1.42570  -0.84149   1.01518   1.43943  -0.49522
  32  N 3   px      -0.05147  -0.07604   0.34254  -0.03652  -0.12463  -0.12555
  33  N 3   py       0.16972   0.14014  -0.14803   0.38703   0.13055   0.17962
  34  N 3   pz       0.08160   0.33793  -0.18120   0.24601   0.56695   0.30619
  35  N 3   px      -0.14824  -0.18335  -0.69560   0.13477   0.32358   0.14723
  36  N 3   py       0.62635   0.36294   0.35247  -0.81106  -0.37320  -0.21213
  37  N 3   pz       0.15442   1.02463   0.46677  -0.61692  -1.27479  -0.36230
  38  N 3   d 1     -0.00860   0.01212   0.02037  -0.04558   0.01305   0.01536
  39  N 3   d 2     -0.00676  -0.01758  -0.00339   0.05225   0.03715  -0.03665
  40  N 3   d 3     -0.01598  -0.00618   0.02868  -0.00047   0.07317  -0.02688
  41  N 3   d 4      0.00900   0.01991   0.08581   0.01845  -0.01468   0.02735
  42  N 3   d 5     -0.01555   0.00925  -0.00168  -0.05794   0.03033   0.00495
  43  N 4   s       -0.12096   0.01251  -0.01779   0.03862  -0.01720  -0.03594
  44  N 4   s        0.20440  -0.02111  -0.07993   0.16820  -0.07240   0.37245
  45  N 4   s        1.59085  -0.16540   0.76732  -1.63689   0.71537  -0.47934
  46  N 4   px      -0.08298   0.00802   0.31640  -0.04767   0.04226   0.09444
  47  N 4   py       0.40068  -0.01521  -0.22434   0.65381  -0.21387  -0.36147
  48  N 4   pz      -0.08913   0.11437   0.03801  -0.05663   0.31400   0.08622
  49  N 4   px      -0.22036   0.02004  -0.62582   0.16389  -0.11083  -0.11290
  50  N 4   py       1.15727   0.00021   0.55886  -1.51146   0.52419   0.43147
  51  N 4   pz      -0.23691   0.50856  -0.10553   0.17833  -0.61248  -0.10273
  52  N 4   d 1     -0.01421   0.00742  -0.08252   0.00592   0.01248   0.02044
  53  N 4   d 2     -0.01310  -0.01601   0.01255   0.00814  -0.08134   0.02141
  54  N 4   d 3     -0.01262   0.00045   0.00432   0.04172  -0.00749   0.02288
  55  N 4   d 4      0.00632   0.01381   0.04196   0.02909   0.04350  -0.00525
  56  N 4   d 5     -0.02201   0.01068  -0.00655   0.07050   0.00489   0.03907
                        25        26        27        28        29        30
 eigenvalues:          0.926     0.928     0.959     0.960     0.960     1.069
   1  N 1   s       -0.00073   0.00073  -0.02390   0.01513  -0.02394   0.00016
   2  N 1   s        0.00411  -0.00425   0.19354  -0.12428   0.19950  -0.00342
   3  N 1   s       -0.00428   0.00429  -0.13644   0.08591  -0.13550   0.01872
   4  N 1   px       0.23220  -0.22229   0.14979   0.07672  -0.37972   0.28230
   5  N 1   py      -0.32699  -0.31989   0.15951   0.48257   0.14586   0.42499
   6  N 1   pz      -0.23532   0.22545  -0.37685   0.06776   0.15034  -0.28362
   7  N 1   px      -0.28456   0.27644   0.10246  -0.21453   0.55483  -0.67408
   8  N 1   py       0.40844   0.40567  -0.13803  -0.40885  -0.12048  -1.01904
   9  N 1   pz       0.29938  -0.29134   0.55108  -0.20208   0.10872   0.68222
  10  N 1   d 1     -0.02246  -0.05205   0.02487   0.05915   0.01294  -0.03066
  11  N 1   d 2     -0.05311  -0.02078   0.01560   0.05910   0.02148  -0.01381
  12  N 1   d 3     -0.05603   0.03446  -0.06206   0.00598   0.04978   0.02029
  13  N 1   d 4      0.01082   0.01105  -0.02843   0.01324  -0.02895   0.00740
  14  N 1   d 5      0.01102  -0.04228   0.02054   0.01622  -0.04485  -0.02386
  15  N 2   s        0.00035   0.00045   0.03461   0.01069  -0.00830  -0.00016
  16  N 2   s       -0.00206  -0.00263  -0.28232  -0.08783   0.06965   0.00273
  17  N 2   s        0.00202   0.00270   0.19550   0.05481  -0.04674  -0.01503
  18  N 2   px      -0.20605   0.15685  -0.08029  -0.34484   0.12604   0.31504
  19  N 2   py       0.39428   0.03451  -0.19519   0.37982   0.23582  -0.22681
  20  N 2   pz       0.05503   0.41999   0.22503  -0.07749   0.45352   0.43070
  21  N 2   px       0.26439  -0.19575   0.45035   0.41491  -0.20224  -0.75204
  22  N 2   py      -0.49617  -0.03923   0.39284  -0.25145  -0.25522   0.54401
  23  N 2   pz      -0.06868  -0.53255  -0.35773   0.01622  -0.34927  -1.03204
  24  N 2   d 1     -0.02060  -0.02008   0.03213  -0.02064  -0.04190   0.00254
  25  N 2   d 2      0.03429  -0.01111  -0.02891   0.03233  -0.01563   0.01683
  26  N 2   d 3      0.02458   0.02906  -0.00417  -0.00867   0.05177  -0.00717
  27  N 2   d 4     -0.01975  -0.06293  -0.03832  -0.00705  -0.06010   0.02604
  28  N 2   d 5      0.06184  -0.03062  -0.00459   0.08084  -0.00263   0.03301
  29  N 3   s       -0.00044  -0.00033  -0.00845   0.01112   0.03424  -0.00003
  30  N 3   s        0.00240   0.00202   0.06789  -0.09140  -0.28336   0.00065
  31  N 3   s       -0.00244  -0.00212  -0.04820   0.06923   0.19561  -0.00363
  32  N 3   px       0.43368   0.05154   0.43690  -0.07139   0.22280  -0.15315
  33  N 3   py       0.02370   0.41109   0.23532   0.36847  -0.18128  -0.05939
  34  N 3   pz       0.16809  -0.21643   0.11420  -0.33260  -0.08470  -0.02939
  35  N 3   px      -0.54167  -0.06552  -0.32603   0.00750  -0.34478   0.36382
  36  N 3   py      -0.03378  -0.51698  -0.25249  -0.24064   0.37241   0.14111
  37  N 3   pz      -0.21314   0.26729  -0.18868   0.40261   0.45926   0.07061
  38  N 3   d 1     -0.01285   0.03652  -0.01581   0.02973  -0.02783  -0.00009
  39  N 3   d 2     -0.01875  -0.02225  -0.04198  -0.02124   0.03072  -0.00450
  40  N 3   d 3     -0.04225   0.03960  -0.02295   0.07281  -0.00539  -0.00423
  41  N 3   d 4     -0.06559  -0.01792  -0.06007  -0.00877  -0.03659  -0.01091
  42  N 3   d 5      0.00865   0.05316   0.04333   0.03229  -0.00324   0.00393
  43  N 4   s        0.00061  -0.00064  -0.00224  -0.03694  -0.00200   0.00003
  44  N 4   s       -0.00362   0.00382   0.01735   0.30351   0.01741  -0.00006
  45  N 4   s        0.00379  -0.00378  -0.00638  -0.20995  -0.01758  -0.00003
  46  N 4   px      -0.43596   0.00982   0.51967   0.01939  -0.01045  -0.45214
  47  N 4   py      -0.10465  -0.11128   0.10953  -0.24918   0.11185  -0.14286
  48  N 4   pz       0.01634  -0.45304  -0.01453   0.04180   0.51209  -0.12048
  49  N 4   px       0.55395  -0.01393  -0.44676  -0.13218   0.00303   1.08057
  50  N 4   py       0.12623   0.14587  -0.06158   0.69001  -0.07088   0.34092
  51  N 4   pz      -0.01909   0.56471   0.00424  -0.15923  -0.44075   0.28711
  52  N 4   d 1     -0.06457   0.01652   0.08039   0.01413  -0.00838   0.02782
  53  N 4   d 2      0.01575  -0.06379  -0.01052   0.01562   0.07934   0.00121
  54  N 4   d 3      0.01469   0.01141  -0.00288   0.02373  -0.02877  -0.00858
  55  N 4   d 4      0.03693   0.03739  -0.02670  -0.00170  -0.02622  -0.02232
  56  N 4   d 5      0.01971   0.02637  -0.03695   0.03777  -0.01911  -0.01351
                        31        32        33        34        35        36
 eigenvalues:          1.069     1.069     1.108     1.484     1.486     1.488
   1  N 1   s        0.00005   0.00017   0.00940   0.01770  -0.02268   0.01750
   2  N 1   s       -0.00111  -0.00355   0.54202   0.36467  -0.47105   0.36600
   3  N 1   s        0.00615   0.01979  -0.27527  -0.93614   1.22432  -0.96234
   4  N 1   px       0.09246   0.29664   0.05875  -0.01307   0.02398  -0.02096
   5  N 1   py       0.01919  -0.41600   0.00004   0.00579   0.00685   0.00306
   6  N 1   pz      -0.09289  -0.29803   0.06490  -0.02372   0.02176  -0.01333
   7  N 1   px      -0.22105  -0.71023  -0.18490  -0.39655   0.37285  -0.19032
   8  N 1   py      -0.04455   0.99968  -0.00012  -0.10208  -0.15838  -0.10226
   9  N 1   pz       0.22371   0.71879  -0.19437  -0.18487   0.38717  -0.40673
  10  N 1   d 1     -0.00361   0.01345  -0.00046   0.11712  -0.13137  -0.28926
  11  N 1   d 2      0.00200   0.03184   0.00041  -0.28797  -0.13442   0.11739
  12  N 1   d 3      0.00879   0.03385   0.06671   0.25698   0.11241  -0.05042
  13  N 1   d 4      0.00017  -0.00528   0.24500  -0.02077  -0.23747  -0.03646
  14  N 1   d 5     -0.00452  -0.00609   0.12488   0.08584   0.17648   0.27235
  15  N 2   s        0.00001  -0.00003   0.00916  -0.03273  -0.00527   0.00591
  16  N 2   s        0.00058   0.00078   0.54860  -0.68421  -0.11662   0.12317
  17  N 2   s       -0.00346  -0.00425  -0.28938   1.76940   0.30439  -0.32640
  18  N 2   px      -0.14324   0.03250  -0.07229  -0.03642  -0.01009   0.00729
  19  N 2   py       0.46855   0.06929  -0.04251  -0.02224   0.00327   0.00820
  20  N 2   pz       0.30540   0.17159   0.03335   0.01805  -0.00281   0.00382
  21  N 2   px       0.34388  -0.07783   0.21893  -0.64381   0.01657   0.11315
  22  N 2   py      -1.12235  -0.16767   0.12839  -0.37257  -0.20522  -0.05074
  23  N 2   pz      -0.73248  -0.41572  -0.09728   0.22723   0.14051  -0.21968
  24  N 2   d 1      0.01646   0.00475   0.18738  -0.09763   0.24506   0.22591
  25  N 2   d 2     -0.01461  -0.00013  -0.07871   0.12007  -0.06736   0.37040
  26  N 2   d 3     -0.02053  -0.00744  -0.09237  -0.02430   0.37878  -0.09492
  27  N 2   d 4      0.02659   0.01292  -0.13567   0.05473   0.09397  -0.02119
  28  N 2   d 5     -0.02368   0.00118   0.10672  -0.07623  -0.08527  -0.16120
  29  N 3   s        0.00001  -0.00017   0.00967   0.00608  -0.00305  -0.03297
  30  N 3   s        0.00051   0.00284   0.53501   0.12556  -0.05647  -0.67948
  31  N 3   s       -0.00303  -0.01532  -0.26013  -0.32001   0.14492   1.77361
  32  N 3   px      -0.29448  -0.45509   0.02652   0.00519  -0.00113   0.01778
  33  N 3   py      -0.47890   0.20523  -0.03986   0.01027   0.00370  -0.02168
  34  N 3   pz       0.15398  -0.30766  -0.06973   0.00693  -0.01014  -0.03844
  35  N 3   px       0.70728   1.09407  -0.08612  -0.22398   0.11330   0.21674
  36  N 3   py       1.15182  -0.49290   0.12436  -0.05577  -0.17986  -0.36757
  37  N 3   pz      -0.36964   0.74245   0.21688   0.11130   0.07058  -0.65328
  38  N 3   d 1      0.01559  -0.01624  -0.07917   0.36957  -0.06130   0.11769
  39  N 3   d 2     -0.01676  -0.00488   0.18845   0.21599   0.25290  -0.08916
  40  N 3   d 3      0.01106  -0.03414   0.13962  -0.08554  -0.26816  -0.06283
  41  N 3   d 4     -0.02645  -0.02918  -0.13658  -0.02703   0.09433   0.06084
  42  N 3   d 5      0.03046  -0.00941  -0.02503  -0.17552   0.28204  -0.04661
  43  N 4   s       -0.00007   0.00003   0.00941   0.00940   0.03103   0.00910
  44  N 4   s        0.00002   0.00004   0.54186   0.20114   0.64434   0.18298
  45  N 4   s        0.00034  -0.00027  -0.27494  -0.51654  -1.67371  -0.48151
  46  N 4   px       0.34341   0.12280  -0.02133   0.01239   0.00748   0.00272
  47  N 4   py      -0.00683   0.13742   0.08241  -0.00877  -0.04289  -0.01212
  48  N 4   pz      -0.36818   0.42577  -0.01988   0.00230   0.00860   0.01109
  49  N 4   px      -0.82560  -0.29700   0.06407  -0.15101   0.22065   0.06286
  50  N 4   py       0.01650  -0.33197  -0.25279  -0.25909  -0.66481  -0.24709
  51  N 4   pz       0.88250  -1.02677   0.06240   0.06823   0.23676  -0.14615
  52  N 4   d 1     -0.02845  -0.00225  -0.10804  -0.21684   0.03439  -0.11391
  53  N 4   d 2      0.02936  -0.02718  -0.10984  -0.11322   0.03787  -0.21936
  54  N 4   d 3      0.00127   0.00726  -0.11821  -0.24174  -0.09807   0.32799
  55  N 4   d 4     -0.00094   0.02171   0.02725  -0.19799   0.13120  -0.18927
  56  N 4   d 5     -0.00130   0.01437  -0.20408   0.23647  -0.15637  -0.09872
                        37        38        39        40        41        42
 eigenvalues:          1.764     1.764     1.765     1.910     1.916     2.326
   1  N 1   s       -0.02753  -0.05912  -0.01809   0.00138  -0.00139   0.00148
   2  N 1   s       -0.71631  -1.48730  -0.43504   0.02369  -0.02250   0.00265
   3  N 1   s        1.77444   3.65931   1.05861  -0.07356   0.07041  -0.03907
   4  N 1   px      -0.15572  -0.06436   0.08486  -0.08727   0.09184  -0.02047
   5  N 1   py      -0.13124   0.10536  -0.14389  -0.12068  -0.12846  -0.01588
   6  N 1   pz       0.07171  -0.09882  -0.12801   0.08436  -0.08851   0.00808
   7  N 1   px       0.30875   1.18368   0.58790   0.00997  -0.00329   0.03988
   8  N 1   py      -0.28579   0.24000  -0.34881   0.04350   0.03304   0.07108
   9  N 1   pz       0.79856   1.08980   0.06556  -0.05202   0.04319  -0.05913
  10  N 1   d 1     -0.02065  -0.02644   0.14581   0.31495  -0.02710  -0.04292
  11  N 1   d 2      0.14269  -0.06613  -0.02990  -0.03775   0.31089  -0.07403
  12  N 1   d 3     -0.14391   0.02475   0.01606  -0.06236   0.27569   0.14144
  13  N 1   d 4      0.00844  -0.13064   0.02893  -0.12007  -0.12428  -0.24557
  14  N 1   d 5     -0.04139   0.00704  -0.14445   0.28647   0.07887   0.42153
  15  N 2   s       -0.04633   0.04256   0.02383   0.00078   0.00092   0.01815
  16  N 2   s       -1.18856   1.06425   0.59487   0.01175   0.02204   0.06327
  17  N 2   s        2.91818  -2.60212  -1.45871  -0.04291  -0.04344  -0.41158
  18  N 2   px       0.16588  -0.02048   0.05050   0.06290  -0.08322   0.07453
  19  N 2   py      -0.00934  -0.00046  -0.20619   0.01362   0.15079   0.02181
  20  N 2   pz       0.09432   0.19113  -0.02943   0.15825   0.02454  -0.02254
  21  N 2   px      -0.85725   1.03140   0.72628  -0.01254   0.05015   0.08711
  22  N 2   py      -0.73225   0.63143  -0.12437   0.00808  -0.04814   0.11789
  23  N 2   pz       0.71456  -0.03011  -0.32554  -0.06559  -0.01105  -0.07484
  24  N 2   d 1     -0.09345   0.08458  -0.11310   0.10180  -0.03761  -0.35539
  25  N 2   d 2      0.10684   0.11539  -0.08070  -0.09839  -0.26142  -0.21972
  26  N 2   d 3     -0.10072  -0.11817  -0.09070  -0.01741  -0.25177  -0.37829
  27  N 2   d 4      0.03196  -0.03384  -0.05069   0.36783   0.07138  -0.07259
  28  N 2   d 5     -0.01407  -0.00598   0.10539   0.21498  -0.25215   0.19651
  29  N 3   s        0.02905   0.02682  -0.05545  -0.00096  -0.00074  -0.00442
  30  N 3   s        0.74131   0.68769  -1.38131  -0.02345  -0.00987  -0.02214
  31  N 3   s       -1.83444  -1.70870   3.41134   0.04744   0.03811   0.10167
  32  N 3   px       0.01009   0.20459   0.04846   0.01629   0.17040  -0.00413
  33  N 3   py      -0.19919   0.03792  -0.01428   0.15986   0.00862  -0.02956
  34  N 3   pz       0.04817  -0.00387   0.15481  -0.07944   0.06184  -0.00247
  35  N 3   px      -0.29200   0.19091   0.71977  -0.00127  -0.03585   0.04761
  36  N 3   py      -0.01673   0.49744  -0.85118  -0.04713  -0.01371   0.06850
  37  N 3   pz       0.87517   0.71279  -1.04261  -0.00219  -0.02407  -0.06909
  38  N 3   d 1     -0.06576   0.14434   0.08049  -0.25927  -0.09263   0.42055
  39  N 3   d 2     -0.10786   0.07902  -0.11651  -0.02987   0.09172   0.11863
  40  N 3   d 3      0.14692   0.02003   0.01253  -0.09732   0.18758  -0.07213
  41  N 3   d 4     -0.05587  -0.02596   0.02330   0.07220   0.36722  -0.12689
  42  N 3   d 5     -0.05886  -0.11679  -0.07376  -0.33359   0.08340  -0.01035
  43  N 4   s        0.04574  -0.01044   0.04876  -0.00159   0.00154  -0.01568
  44  N 4   s        1.16169  -0.26493   1.22201  -0.03589   0.03416  -0.06493
  45  N 4   s       -2.85750   0.65164  -3.01135   0.07886  -0.07488   0.35762
  46  N 4   px      -0.09899   0.17152   0.09225   0.00657  -0.17055  -0.03477
  47  N 4   py       0.10124   0.05245   0.09009  -0.04749  -0.03593   0.05437
  48  N 4   pz       0.11539   0.12718  -0.13110  -0.17228   0.00364  -0.00411
  49  N 4   px       0.11615   0.31941   0.57785  -0.01002   0.06999   0.03677
  50  N 4   py      -1.14970   0.43681  -1.24410   0.04568  -0.01857   0.13683
  51  N 4   pz       0.61051   0.21283   0.06193   0.03427   0.00667  -0.06912
  52  N 4   d 1     -0.02311  -0.11054  -0.07074  -0.13294   0.24259   0.28215
  53  N 4   d 2     -0.08685  -0.09539   0.00332   0.24723  -0.13681   0.13559
  54  N 4   d 3      0.10647   0.03018  -0.15592   0.09833  -0.18557   0.28381
  55  N 4   d 4     -0.01885  -0.11908   0.00792  -0.28798  -0.29805   0.32477
  56  N 4   d 5     -0.11822   0.10213   0.01015  -0.15404   0.00913  -0.28117
                        43        44        45        46        47        48
 eigenvalues:          2.329     2.336     2.339     2.342     2.345     2.494
   1  N 1   s       -0.02803   0.01211   0.02127   0.07812  -0.01204   0.02051
   2  N 1   s       -0.10359   0.05033   0.06576   0.30068  -0.03314   0.86078
   3  N 1   s        0.63209  -0.26581  -0.50930  -1.77296   0.29576  -0.35038
   4  N 1   px       0.08073  -0.01009  -0.12856  -0.19912   0.08827   0.35255
   5  N 1   py      -0.03247  -0.02649  -0.07002  -0.00068  -0.08015  -0.00000
   6  N 1   pz       0.08405  -0.05417  -0.01310  -0.24647  -0.00318   0.35361
   7  N 1   px       0.17147  -0.14994   0.09233  -0.54340  -0.10597  -0.34175
   8  N 1   py       0.11557   0.10368   0.26262   0.00009   0.30906  -0.00042
   9  N 1   pz       0.16181   0.00690  -0.35495  -0.39910   0.25656  -0.35919
  10  N 1   d 1      0.51602   0.04631   0.37193   0.07782  -0.03300   0.01872
  11  N 1   d 2     -0.30430   0.32672   0.07976  -0.11817   0.43702  -0.01940
  12  N 1   d 3      0.16334  -0.06221  -0.24339   0.26237   0.37336  -0.09479
  13  N 1   d 4     -0.08696   0.19526  -0.00505   0.16304  -0.23862  -0.26282
  14  N 1   d 5     -0.11564  -0.27349   0.30808   0.06352   0.16932  -0.12170
  15  N 2   s        0.02272  -0.01295   0.06792  -0.04095  -0.00815   0.02261
  16  N 2   s        0.08049  -0.03691   0.23708  -0.13800  -0.00831   0.85975
  17  N 2   s       -0.50699   0.28797  -1.55234   0.90920   0.18386  -0.39025
  18  N 2   px       0.07384  -0.03202   0.27130  -0.09669  -0.01259  -0.39620
  19  N 2   py       0.03069  -0.06411   0.11423  -0.11037  -0.10792  -0.22670
  20  N 2   pz      -0.06438   0.01430  -0.05844   0.13623  -0.03495   0.16795
  21  N 2   px       0.16709  -0.14942   0.33329  -0.44859  -0.15062   0.41311
  22  N 2   py       0.14833   0.08302   0.36557  -0.05849   0.29993   0.23177
  23  N 2   pz       0.05276   0.06011  -0.37613  -0.16944   0.22989  -0.18027
  24  N 2   d 1     -0.05501  -0.17056   0.30636  -0.00768  -0.03896  -0.18663
  25  N 2   d 2      0.35390  -0.24888   0.01616   0.29359   0.35441   0.07598
  26  N 2   d 3     -0.26853   0.20668   0.10779  -0.10317   0.35638   0.09508
  27  N 2   d 4     -0.34298   0.07439   0.14265   0.32167  -0.28387   0.15893
  28  N 2   d 5     -0.11849   0.26954   0.32334   0.20852   0.18700  -0.11137
  29  N 3   s        0.01731   0.02344  -0.03472  -0.01039   0.07572   0.01822
  30  N 3   s        0.06466   0.09454  -0.16071  -0.04067   0.30677   0.86051
  31  N 3   s       -0.39845  -0.52924   0.80297   0.25934  -1.72988  -0.30424
  32  N 3   px      -0.06686  -0.00687   0.01577   0.11099  -0.09272   0.17315
  33  N 3   py       0.01499   0.03422  -0.14837  -0.02643   0.10216  -0.24405
  34  N 3   pz       0.05181   0.08883  -0.05771   0.00760   0.26338  -0.41634
  35  N 3   px       0.09922  -0.15288   0.19350  -0.33008  -0.23422  -0.15798
  36  N 3   py       0.14181   0.12725   0.19647  -0.01899   0.44706   0.23319
  37  N 3   pz       0.14260   0.11011  -0.41749  -0.24644   0.45162   0.39096
  38  N 3   d 1     -0.27709   0.26803   0.29483  -0.14824   0.03674   0.09328
  39  N 3   d 2      0.08116   0.43375  -0.14909   0.07073  -0.01267  -0.21586
  40  N 3   d 3     -0.12530  -0.14156   0.13114   0.29568   0.31505  -0.15578
  41  N 3   d 4     -0.05108   0.10912  -0.12076   0.51610  -0.15927   0.13402
  42  N 3   d 5      0.45106   0.27559   0.37917   0.19942  -0.02444   0.02806
  43  N 4   s       -0.01211  -0.02179  -0.05674  -0.02607  -0.05358   0.02058
  44  N 4   s       -0.04707  -0.07104  -0.24366  -0.08866  -0.17750   0.86049
  45  N 4   s        0.27561   0.49198   1.30019   0.59079   1.21436  -0.35083
  46  N 4   px      -0.04908   0.00417  -0.10653   0.05659  -0.03576  -0.12193
  47  N 4   py       0.03009   0.09519   0.20173   0.13867   0.20869   0.47025
  48  N 4   pz      -0.03734  -0.03337   0.00995   0.01747  -0.13087  -0.11334
  49  N 4   px       0.10667  -0.14016   0.09226  -0.36413  -0.18001   0.12869
  50  N 4   py       0.15554   0.15787   0.46412   0.08293   0.47476  -0.46733
  51  N 4   pz       0.07402   0.00679  -0.35084  -0.22688   0.19139   0.10470
  52  N 4   d 1      0.07674  -0.26374   0.30094  -0.16838  -0.05606   0.13367
  53  N 4   d 2      0.03017  -0.07199  -0.27798   0.01297   0.42902   0.10011
  54  N 4   d 3      0.21279   0.46774  -0.16609   0.18078  -0.06778   0.12824
  55  N 4   d 4     -0.25907  -0.31842  -0.08712   0.49539  -0.09746  -0.02883
  56  N 4   d 5     -0.16498  -0.03844   0.29704   0.15778   0.06246   0.21821
                        49        50        51        52        53        54
 eigenvalues:          2.625     2.633     2.960     2.962     2.963     3.178
   1  N 1   s       -0.00044   0.00038   0.00265  -0.15232   0.00598   0.00007
   2  N 1   s       -0.01111   0.00992   0.01376  -1.10220   0.04853   0.01223
   3  N 1   s        0.00887  -0.00786  -0.10895   4.41689  -0.14195  -0.00975
   4  N 1   px       0.05060  -0.04738   0.11090   0.17211  -0.11754  -0.04790
   5  N 1   py      -0.07644  -0.07305  -0.16856  -0.00939  -0.16505  -0.07836
   6  N 1   pz      -0.05874   0.05470  -0.12849   0.17956   0.11490   0.05740
   7  N 1   px      -0.11180   0.11180   0.22328   1.67811  -0.31145  -0.36544
   8  N 1   py       0.16493   0.16795  -0.37218  -0.02085  -0.36453  -0.53564
   9  N 1   pz       0.12437  -0.12316  -0.30506   1.67578   0.20277   0.35656
  10  N 1   d 1      0.41545   0.00716  -0.15225  -0.01478  -0.24268  -0.61032
  11  N 1   d 2      0.00363   0.42520  -0.23903  -0.00711  -0.14150  -0.28803
  12  N 1   d 3      0.13665  -0.39303  -0.27529   0.28126   0.19574   0.42131
  13  N 1   d 4      0.14953   0.14451   0.00144   0.98404   0.00912   0.11939
  14  N 1   d 5     -0.36341  -0.07589   0.07859   0.48848  -0.20279  -0.48056
  15  N 2   s       -0.00026   0.00037   0.03600   0.04765  -0.14001  -0.00009
  16  N 2   s       -0.00583   0.00870   0.26129   0.35033  -1.01518  -0.01009
  17  N 2   s        0.00037  -0.00640  -1.05024  -1.35885   4.06175   0.00882
  18  N 2   px      -0.04642   0.03283   0.11686   0.16332  -0.13116  -0.03917
  19  N 2   py       0.09544   0.00566  -0.16515  -0.00997  -0.17229   0.00802
  20  N 2   pz       0.01149   0.09780  -0.12321   0.16356   0.11745  -0.09640
  21  N 2   px       0.10621  -0.07847   0.61185   0.82720  -1.65530  -0.30346
  22  N 2   py      -0.20764  -0.01287  -0.16123   0.24659  -1.17281   0.03867
  23  N 2   pz      -0.02493  -0.22164  -0.41809   0.16244   0.83347  -0.64295
  24  N 2   d 1      0.41810   0.04986  -0.01188  -0.27356   0.71934   0.18174
  25  N 2   d 2      0.11590   0.42939  -0.01908  -0.03447  -0.36342   0.20984
  26  N 2   d 3      0.24236  -0.39487  -0.05151   0.24546  -0.33178  -0.30830
  27  N 2   d 4      0.10671   0.04736   0.32381  -0.07080  -0.53917   0.67164
  28  N 2   d 5     -0.29433  -0.05510  -0.33930  -0.34364   0.26116   0.43999
  29  N 3   s       -0.00035   0.00020  -0.14048   0.04813   0.03560   0.00002
  30  N 3   s       -0.00956   0.00489  -1.01476   0.34271   0.25687  -0.00213
  31  N 3   s        0.00563   0.00072   4.07093  -1.41847  -1.02551   0.00103
  32  N 3   px       0.09927   0.01295   0.11707   0.16742  -0.12441   0.04311
  33  N 3   py       0.00808   0.09068  -0.17229  -0.00520  -0.16572   0.04763
  34  N 3   pz       0.04294  -0.05081  -0.13324   0.17682   0.11455  -0.00795
  35  N 3   px      -0.21743  -0.02929   0.83117   0.17693  -0.42144   0.29338
  36  N 3   py      -0.01701  -0.20673  -1.17031   0.26007  -0.16553   0.31601
  37  N 3   pz      -0.08888   0.11038  -1.65740   0.85552   0.59569  -0.06177
  38  N 3   d 1      0.43803   0.13581  -0.36070  -0.03842  -0.02391   0.11878
  39  N 3   d 2      0.05172   0.42372   0.72051  -0.28998  -0.01053  -0.20947
  40  N 3   d 3      0.15397  -0.38779   0.39471  -0.43508  -0.25669   0.04712
  41  N 3   d 4      0.04030   0.10504  -0.53172  -0.07363   0.32423  -0.37359
  42  N 3   d 5     -0.37399   0.05925  -0.14962   0.04726  -0.22040   0.32234
  43  N 4   s       -0.00019   0.00017   0.09996   0.05656   0.10027   0.00000
  44  N 4   s       -0.00443   0.00355   0.72403   0.40936   0.72503   0.00010
  45  N 4   s       -0.00233   0.00256  -2.90548  -1.63966  -2.90037  -0.00013
  46  N 4   px      -0.10254   0.00155   0.11673   0.16840  -0.12180   0.05386
  47  N 4   py      -0.02762  -0.02271  -0.17442  -0.01386  -0.17486   0.02637
  48  N 4   pz       0.00461  -0.10271  -0.11992   0.16737   0.11381   0.05146
  49  N 4   px       0.22821  -0.00436   0.54220   0.53497   0.01057   0.36651
  50  N 4   py       0.05661   0.05482  -1.51372  -0.66867  -1.51645   0.17788
  51  N 4   pz      -0.00896   0.22882   0.02042   0.52548   0.53166   0.34536
  52  N 4   d 1      0.36020   0.10167   0.43740   0.34371   0.03358   0.30931
  53  N 4   d 2      0.09725   0.36394   0.04181   0.33773   0.43255   0.28470
  54  N 4   d 3      0.23429  -0.41733   0.36389   0.08541   0.31637  -0.15779
  55  N 4   d 4      0.18870   0.17701  -0.01940  -0.23629  -0.01338  -0.42181
  56  N 4   d 5     -0.35924   0.02091   0.56564   0.13891   0.59826  -0.28192
                        55        56
 eigenvalues:          3.182     3.186
   1  N 1   s       -0.00003  -0.00008
   2  N 1   s       -0.00583  -0.01223
   3  N 1   s        0.00467   0.00982
   4  N 1   px       0.02360   0.05117
   5  N 1   py      -0.00222  -0.08369
   6  N 1   pz      -0.02813  -0.06068
   7  N 1   px       0.17408   0.36509
   8  N 1   py      -0.00787  -0.54137
   9  N 1   pz      -0.16984  -0.35618
  10  N 1   d 1      0.06789  -0.29825
  11  N 1   d 2     -0.08309  -0.60976
  12  N 1   d 3     -0.24871  -0.62616
  13  N 1   d 4     -0.00155   0.11708
  14  N 1   d 5      0.14600   0.12588
  15  N 2   s        0.00011  -0.00003
  16  N 2   s        0.00353   0.00212
  17  N 2   s       -0.00508  -0.00054
  18  N 2   px       0.04703  -0.01095
  19  N 2   py      -0.08868   0.04865
  20  N 2   pz      -0.00699   0.04504
  21  N 2   px       0.32412  -0.06343
  22  N 2   py      -0.58417   0.32380
  23  N 2   pz      -0.04646   0.29222
  24  N 2   d 1      0.23653  -0.20985
  25  N 2   d 2     -0.36412   0.12739
  26  N 2   d 3     -0.22830   0.26055
  27  N 2   d 4      0.16767  -0.37285
  28  N 2   d 5     -0.67018   0.20806
  29  N 3   s        0.00012   0.00011
  30  N 3   s        0.00362   0.01015
  31  N 3   s       -0.00531  -0.00932
  32  N 3   px       0.00586  -0.09986
  33  N 3   py       0.08868   0.00374
  34  N 3   pz      -0.05040  -0.04996
  35  N 3   px       0.03913  -0.66067
  36  N 3   py       0.59453   0.03952
  37  N 3   pz      -0.32313  -0.28933
  38  N 3   d 1      0.37276   0.21262
  39  N 3   d 2     -0.23744   0.18046
  40  N 3   d 3      0.46991   0.52601
  41  N 3   d 4     -0.16062   0.68639
  42  N 3   d 5      0.54036  -0.05045
  43  N 4   s       -0.00020  -0.00000
  44  N 4   s       -0.00132   0.00007
  45  N 4   s        0.00571  -0.00000
  46  N 4   px      -0.07997   0.05485
  47  N 4   py       0.00113   0.02772
  48  N 4   pz       0.08210   0.05580
  49  N 4   px      -0.53458   0.36148
  50  N 4   py       0.00542   0.18105
  51  N 4   pz       0.54234   0.36274
  52  N 4   d 1     -0.67801   0.29844
  53  N 4   d 2      0.68375   0.30226
  54  N 4   d 3      0.00970  -0.15927
  55  N 4   d 4     -0.00660  -0.42624
  56  N 4   d 5     -0.01187  -0.28528

          Ground-State Mulliken Net Atomic Charges

     Atom                 Charge (a.u.)
  ----------------------------------------
      1 N                     0.000010
      2 N                    -0.001438
      3 N                     0.001451
      4 N                    -0.000023
  ----------------------------------------
  Sum of atomic charges =    -0.000000

 -----------------------------------------------------------------
                    Cartesian Multipole Moments
 -----------------------------------------------------------------
    Charge (ESU x 10^10)
                -0.0000
    Dipole Moment (Debye)
         X      -0.0076      Y       0.0001      Z       0.0077
       Tot       0.0108
    Quadrupole Moments (Debye-Ang)
        XX     -22.4799     XY      -0.0067     YY     -22.5189
        XZ      -0.0001     YZ       0.0066     ZZ     -22.5571
    Octopole Moments (Debye-Ang^2)
       XXX      -0.4169    XXY      -0.8124    XYY      -0.8297
       YYY       1.6470    XXZ       1.2458    XYZ       0.8234
       YYZ      -0.8169    XZZ       1.2240    YZZ      -0.8345
       ZZZ      -0.4055
    Hexadecapole Moments (Debye-Ang^3)
      XXXX     -54.7377   XXXY      -0.4774   XXYY     -18.1608
      XYYY       0.2942   YYYY     -54.8016   XXXZ      -0.0982
      XXYZ       0.1499   XYYZ       0.1516   YYYZ       0.3125
      XXZZ     -18.4954   XYZZ       0.1537   YYZZ     -18.0710
      XZZZ      -0.0537   YZZZ      -0.4328   ZZZZ     -54.1099
 -----------------------------------------------------------------
Archival summary:
1\1\He\SP\HF\BasisUnspecified\4\vladimir\SatMay609:11:072017SatMay609:11:072017\0\\#,HF,BasisUnspecified,\\0,1\N\N,1,1.46376\N,1,1.47078,2,60.1608\N,3,1.47078,1,60,2,-71.0498,0\\HF=-217.535719\\@

 Total job time:  3.78s(wall), 3.69s(cpu) 
 Sat May  6 09:11:07 2017

======= MOLDEN-FORMATTED INPUT FILE FOLLOWS =======
[Molden Format]
[Atoms] (Angs)
  N      1    7     -0.64251165     -0.00000000     -0.63126166
  N      2    7      0.73569921      0.42457822     -0.30804628
  N      3    7     -0.30735811      0.42457822      0.72888739
  N      4    7      0.21417055     -0.84915644      0.21042055
[GTO]
1    0
S    7    1.000000
   9.04600000E+03    7.00000000E-04 
   1.35700000E+03    5.38983000E-03 
   3.09300000E+02    2.74060000E-02 
   8.77300000E+01    1.03262320E-01 
   2.85600000E+01    2.78905240E-01 
   1.02100000E+01    4.50217400E-01 
   3.83800000E+00    2.79943000E-01 
S    7    1.000000
   9.04600000E+03    5.00000000E-08 
   1.35700000E+03   -2.97600000E-05 
   8.77300000E+01   -1.97900000E-03 
   2.85600000E+01   -6.51949000E-03 
   1.02100000E+01   -6.00100000E-02 
   3.83800000E+00   -6.09975300E-02 
   7.46600000E-01    5.52378750E-01 
S    1    1.000000
   2.24800000E-01    1.00000000E+00 
P    3    1.000000
   1.35500000E+01    3.99190000E-02 
   2.91700000E+00    2.17169000E-01 
   7.97300000E-01    5.10319000E-01 
P    1    1.000000
   2.18500000E-01    1.00000000E+00 
D    1    1.000000
   8.17000000E-01    1.00000000E+00 

2    0
S    7    1.000000
   9.04600000E+03    7.00000000E-04 
   1.35700000E+03    5.38983000E-03 
   3.09300000E+02    2.74060000E-02 
   8.77300000E+01    1.03262320E-01 
   2.85600000E+01    2.78905240E-01 
   1.02100000E+01    4.50217400E-01 
   3.83800000E+00    2.79943000E-01 
S    7    1.000000
   9.04600000E+03    5.00000000E-08 
   1.35700000E+03   -2.97600000E-05 
   8.77300000E+01   -1.97900000E-03 
   2.85600000E+01   -6.51949000E-03 
   1.02100000E+01   -6.00100000E-02 
   3.83800000E+00   -6.09975300E-02 
   7.46600000E-01    5.52378750E-01 
S    1    1.000000
   2.24800000E-01    1.00000000E+00 
P    3    1.000000
   1.35500000E+01    3.99190000E-02 
   2.91700000E+00    2.17169000E-01 
   7.97300000E-01    5.10319000E-01 
P    1    1.000000
   2.18500000E-01    1.00000000E+00 
D    1    1.000000
   8.17000000E-01    1.00000000E+00 

3    0
S    7    1.000000
   9.04600000E+03    7.00000000E-04 
   1.35700000E+03    5.38983000E-03 
   3.09300000E+02    2.74060000E-02 
   8.77300000E+01    1.03262320E-01 
   2.85600000E+01    2.78905240E-01 
   1.02100000E+01    4.50217400E-01 
   3.83800000E+00    2.79943000E-01 
S    7    1.000000
   9.04600000E+03    5.00000000E-08 
   1.35700000E+03   -2.97600000E-05 
   8.77300000E+01   -1.97900000E-03 
   2.85600000E+01   -6.51949000E-03 
   1.02100000E+01   -6.00100000E-02 
   3.83800000E+00   -6.09975300E-02 
   7.46600000E-01    5.52378750E-01 
S    1    1.000000
   2.24800000E-01    1.00000000E+00 
P    3    1.000000
   1.35500000E+01    3.99190000E-02 
   2.91700000E+00    2.17169000E-01 
   7.97300000E-01    5.10319000E-01 
P    1    1.000000
   2.18500000E-01    1.00000000E+00 
D    1    1.000000
   8.17000000E-01    1.00000000E+00 

4    0
S    7    1.000000
   9.04600000E+03    7.00000000E-04 
   1.35700000E+03    5.38983000E-03 
   3.09300000E+02    2.74060000E-02 
   8.77300000E+01    1.03262320E-01 
   2.85600000E+01    2.78905240E-01 
   1.02100000E+01    4.50217400E-01 
   3.83800000E+00    2.79943000E-01 
S    7    1.000000
   9.04600000E+03    5.00000000E-08 
   1.35700000E+03   -2.97600000E-05 
   8.77300000E+01   -1.97900000E-03 
   2.85600000E+01   -6.51949000E-03 
   1.02100000E+01   -6.00100000E-02 
   3.83800000E+00   -6.09975300E-02 
   7.46600000E-01    5.52378750E-01 
S    1    1.000000
   2.24800000E-01    1.00000000E+00 
P    3    1.000000
   1.35500000E+01    3.99190000E-02 
   2.91700000E+00    2.17169000E-01 
   7.97300000E-01    5.10319000E-01 
P    1    1.000000
   2.18500000E-01    1.00000000E+00 
D    1    1.000000
   8.17000000E-01    1.00000000E+00 

[MO]
Sym=X
Ene= -15.752140
Spin=Alpha
Occup=1
     1    5.032364238243e-01
     2    8.291696443920e-03
     3   -1.392547605669e-03
     4    1.291594120051e-03
     5    3.471229807805e-07
     6    1.279116241486e-03
     7   -8.776403213805e-04
     8    1.301666455794e-06
     9   -8.794131532467e-04
    10   -7.724724950426e-05
    11   -2.796446987000e-04
    12   -2.566833136628e-06
    13   -1.419837545761e-04
    14    1.878147915813e-06
    15    5.050102832015e-01
    16    8.299325109248e-03
    17   -1.363452580314e-03
    18   -1.479315828425e-03
    19   -8.570439798233e-04
    20    6.237454911200e-04
    21    9.871423163932e-04
    22    5.784805568555e-04
    23   -4.247419501539e-04
    24    1.076373557187e-04
    25    1.552687882175e-04
    26    8.949389361659e-05
    27   -1.213015537528e-04
    28   -2.116494560990e-04
    29    4.913412694535e-01
    30    8.131088006215e-03
    31   -1.356091408335e-03
    32    6.077418287114e-04
    33   -8.428981572414e-04
    34   -1.454681067867e-03
    35   -4.192073396347e-04
    36    5.829080840037e-04
    37    1.007496807231e-03
    38   -1.633619727432e-04
    39    1.562306914937e-04
    40   -2.202728792329e-04
    41    2.643984591422e-05
    42    9.063882099897e-05
    43    4.956217253340e-01
    44    8.176393934227e-03
    45   -1.342030449822e-03
    46   -4.254318797463e-04
    47    1.693945308007e-03
    48   -4.224504761737e-04
    49    2.852920858986e-04
    50   -1.152167796382e-03
    51    2.872709157104e-04
    52    1.392970024003e-04
    53   -3.199434126137e-05
    54    1.280473629087e-04
    55    2.329555488710e-04
    56    1.243378661818e-04
Sym=X
Ene= -15.751229
Spin=Alpha
Occup=1
     1   -6.086430006551e-01
     2   -9.256689756632e-03
     3    4.174316285390e-03
     4   -1.107148584655e-03
     5    4.652892326807e-05
     6   -1.248354996502e-03
     7    1.540596281393e-03
     8    1.763714613049e-04
     9    9.783251766065e-04
    10    7.193625855063e-05
    11   -1.985712459836e-04
    12   -2.887478630925e-05
    13   -1.981836638177e-04
    14   -7.956620768136e-05
    15    7.779413892281e-01
    16    1.180895461817e-02
    17   -5.342782048668e-03
    18   -1.684010267838e-03
    19   -1.018223969590e-03
    20    7.861920823285e-04
    21    1.983936541482e-03
    22    9.944251336823e-04
    23   -5.714546050747e-04
    24   -1.345777876991e-04
    25   -9.166739672929e-05
    26   -4.487911674932e-05
    27    1.857192408197e-04
    28    2.132766986951e-04
    29   -1.330639181855e-01
    30   -2.030973939538e-03
    31    9.134437455157e-04
    32    1.053071398228e-05
    33    2.281464184342e-04
    34    3.204588148107e-04
    35    6.737739559085e-04
    36    3.397854673104e-05
    37   -2.226167585987e-04
    38    5.780049025229e-05
    39    2.479929505529e-04
    40    6.813970278857e-05
    41   -1.110460124216e-04
    42    4.929419895819e-05
    43   -4.277007204948e-02
    44   -6.509148342295e-04
    45    2.775397429513e-04
    46    1.733755722298e-04
    47   -7.394469708421e-05
    48    3.516789310780e-05
    49    5.512879171067e-04
    50    2.643733531174e-04
    51    3.999636877938e-07
    52    4.262803993191e-05
    53    1.101137699291e-04
    54    3.049936493114e-05
    55    1.174920447327e-04
    56   -2.278432243904e-04
Sym=X
Ene= -15.751206
Spin=Alpha
Occup=1
     1   -4.691959741466e-01
     2   -7.121031754663e-03
     3    3.220335887384e-03
     4   -9.319434465461e-04
     5   -1.217776751345e-04
     6   -8.842698214350e-04
     7    8.792673155021e-04
     8   -4.795641351840e-04
     9    1.047413125941e-03
    10   -8.354115219366e-05
    11   -1.990332738636e-04
    12    1.434374461141e-04
    13   -1.639291415438e-05
    14    1.675128046820e-04
    15   -3.241217553141e-01
    16   -4.909517276024e-03
    17    2.218103129637e-03
    18    7.985205522015e-04
    19    3.221556485293e-04
    20   -2.423110141348e-04
    21   -4.389799721696e-04
    22   -8.175856472286e-04
    23    5.631056742861e-04
    24    2.269018855737e-05
    25    1.250225213714e-04
    26    1.558603283409e-04
    27    1.652818033021e-04
    28   -1.366261193057e-04
    29   -1.186363252410e-02
    30   -1.808449430348e-04
    31    1.097817331415e-04
    32    2.305892745242e-05
    33   -1.067138169189e-04
    34    1.048210509225e-04
    35    1.507099675783e-04
    36   -4.926578655178e-04
    37    2.909765454009e-04
    38    2.056682891304e-04
    39    1.677298139356e-05
    40   -7.594553116154e-05
    41    1.320069672616e-04
    42    1.267135631711e-04
    43    8.184298748923e-01
    44    1.243744926236e-02
    45   -5.586061351424e-03
    46   -5.300881436960e-04
    47    2.129739914737e-03
    48   -4.793055497669e-04
    49    5.692863076367e-04
    50   -2.193325430816e-03
    51    7.458238814239e-04
    52   -1.145260372774e-04
    53    6.809171368504e-05
    54   -2.052199196764e-04
    55   -2.145621930354e-04
    56   -1.190608868967e-04
Sym=X
Ene= -15.751190
Spin=Alpha
Occup=1
     1   -3.890668425548e-01
     2   -5.896558256671e-03
     3    2.663962001791e-03
     4   -8.299857625712e-04
     5    7.403582958825e-05
     6   -6.793760672200e-04
     7    4.912088069114e-04
     8    3.037558831561e-04
     9    1.093750124148e-03
    10   -2.435252621814e-04
    11   -1.359233105052e-04
    12   -1.389203056072e-04
    13    6.063414447586e-06
    14   -6.812242346419e-05
    15   -1.730082453503e-01
    16   -2.617009443528e-03
    17    1.198377481017e-03
    18    3.779617959617e-04
    19    3.118903675248e-04
    20   -4.655192819100e-05
    21   -4.263750496270e-04
    22    1.253061981929e-04
    23    6.257326206665e-04
    24   -1.061808321529e-04
    25    2.344620433965e-04
    26    1.203414189229e-05
    27   -1.004869562546e-04
    28    6.337589020784e-05
    29    8.578718922280e-01
    30    1.304951863191e-02
    31   -5.850684050455e-03
    32    8.191344313538e-04
    33   -1.108914282195e-03
    34   -1.924641773320e-03
    35   -7.643052887380e-04
    36    1.199494273036e-03
    37    2.039490998994e-03
    38    2.018298709989e-04
    39   -1.277190116920e-04
    40    2.536131181519e-04
    41   -4.922325434057e-05
    42   -8.781180486238e-05
    43   -2.791298693089e-01
    44   -4.236067898874e-03
    45    1.937461649982e-03
    46    1.628136790933e-04
    47   -6.876595521272e-04
    48    3.154599920097e-04
    49   -2.630021753883e-04
    50    8.895548022791e-04
    51    3.473604381638e-04
    52    1.114602013493e-04
    53    7.596649018644e-05
    54   -1.798337646331e-04
    55    1.494346616033e-04
    56    1.085005146950e-04
Sym=X
Ene= -1.664764
Spin=Alpha
Occup=1
     1   -9.516162179523e-02
     2    2.026525057624e-01
     3    1.221478903129e-01
     4    9.083629793980e-02
     5    1.262722415965e-05
     6    9.134916500573e-02
     7    2.920111616384e-02
     8   -3.923881441432e-07
     9    2.905728391474e-02
    10    6.223327084919e-03
    11    2.167804393064e-02
    12    8.309246826714e-05
    13    1.085846082257e-02
    14   -7.943309942022e-05
    15   -9.451558108788e-02
    16    2.013610940274e-01
    17    1.208672163912e-01
    18   -1.038689044743e-01
    19   -6.019262139959e-02
    20    4.436488461934e-02
    21   -3.300884796633e-02
    22   -1.919636036620e-02
    23    1.400454889385e-02
    24   -8.101436174145e-03
    25   -1.215492569284e-02
    26   -6.994276860832e-03
    27    9.463066943285e-03
    28    1.647246217396e-02
    29   -9.580820865270e-02
    30    2.039370476912e-01
    31    1.234730295951e-01
    32    4.363742471118e-02
    33   -6.126168522464e-02
    34   -1.056042721210e-01
    35    1.414621116163e-02
    36   -1.965445807243e-02
    37   -3.399832650013e-02
    38    1.236266192755e-02
    39   -1.192785752283e-02
    40    1.676255024373e-02
    41   -2.289055221034e-03
    42   -6.968794734499e-03
    43   -9.515369994617e-02
    44    2.026320193461e-01
    45    1.221566332544e-01
    46   -3.075938565396e-02
    47    1.214416633623e-01
    48   -2.995420980077e-02
    49   -9.709459450767e-03
    50    3.884585066517e-02
    51   -9.714023941883e-03
    52   -1.055191748173e-02
    53    2.407457688185e-03
    54   -9.526969342019e-03
    55   -1.799335239728e-02
    56   -9.740596304761e-03
Sym=X
Ene= -1.049883
Spin=Alpha
Occup=1
     1    1.147895036723e-01
     2   -2.642609445194e-01
     3   -3.358401327457e-01
     4    8.939223617531e-02
     5   -2.686792155188e-02
     6   -9.882573487150e-02
     7    4.050591120133e-03
     8   -8.393388575357e-03
     9   -5.564578033067e-02
    10   -2.251366283431e-02
    11   -1.341539526610e-03
    12   -6.290884630627e-03
    13    1.119316165786e-02
    14   -8.802113519958e-04
    15   -1.229901526564e-01
    16    2.829147238652e-01
    17    3.599145929195e-01
    18    6.693183473556e-02
    19   -9.412519110438e-02
    20    4.795387148594e-02
    21   -8.777553519342e-03
    22   -4.731945679989e-02
    23    2.808096059577e-02
    24    1.755593334976e-03
    25   -4.287709742662e-03
    26   -1.116296000558e-02
    27   -1.946141079111e-02
    28    7.224967441403e-03
    29    6.750069193802e-02
    30   -1.554528616958e-01
    31   -1.975882822248e-01
    32    1.602162306181e-01
    33    1.177528152389e-02
    34    6.449078961452e-02
    35    4.392526643669e-02
    36    1.330126367190e-02
    37    3.684870802763e-02
    38   -1.756952732895e-02
    39   -2.314662402003e-02
    40   -8.262259851710e-03
    41    8.656849150898e-03
    42   -1.045554763190e-02
    43   -6.033524332714e-02
    44    1.387550871149e-01
    45    1.768430287162e-01
    46    1.686931211867e-01
    47    4.096796306289e-02
    48   -1.839884185623e-02
    49    4.923288710396e-02
    50    3.024053678567e-02
    51   -1.012238603445e-02
    52   -1.924925607945e-03
    53   -9.718901626717e-03
    54   -6.822991073733e-03
    55   -1.310193068570e-02
    56    2.840891521234e-02
Sym=X
Ene= -1.046458
Spin=Alpha
Occup=1
     1   -3.209688355090e-02
     2    7.386978206858e-02
     3    9.441660522303e-02
     4    1.169038761301e-03
     5   -1.847462327135e-01
     6    4.566333254184e-04
     7    7.086486685912e-03
     8   -5.911341092819e-02
     9    7.123858628524e-03
    10   -2.254220714292e-03
    11    3.030475646942e-03
    12   -2.463053862931e-02
    13   -3.698487103640e-03
    14   -2.479047809708e-02
    15    8.735105746954e-02
    16   -2.010190464174e-01
    17   -2.566744538370e-01
    18    5.699419796447e-02
    19   -1.358255788042e-01
    20   -6.090723969078e-02
    21    3.954049760013e-02
    22   -3.103796774796e-02
    23   -2.853567211264e-02
    24   -8.574853950633e-03
    25    1.405285168767e-02
    26   -6.453310579829e-03
    27   -2.099468318160e-02
    28    1.335551838518e-02
    29    8.690031946432e-02
    30   -2.000254242353e-01
    31   -2.558500860652e-01
    32   -6.079871654057e-02
    33   -1.371376031526e-01
    34    5.781445122931e-02
    35   -2.834685621060e-02
    36   -3.154405433161e-02
    37    3.989395047288e-02
    38   -1.395636966845e-02
    39    1.405123394998e-02
    40    1.349912993004e-02
    41   -1.816318906717e-02
    42   -6.458846177009e-03
    43   -1.421563796476e-01
    44    3.271754918546e-01
    45    4.181209275522e-01
    46   -6.602638424754e-02
    47   -2.720957471819e-02
    48   -6.445268897625e-02
    49   -3.128731407725e-02
    50    3.168853742818e-02
    51   -3.065721395140e-02
    52    3.816719475711e-03
    53    8.491138335021e-03
    54   -1.002755578633e-02
    55    6.961256222181e-03
    56   -1.030382309690e-02
Sym=X
Ene= -1.043083
Spin=Alpha
Occup=1
     1    1.144923867440e-01
     2   -2.634351403326e-01
     3   -3.385227082066e-01
     4   -9.530308195289e-02
     5   -2.486543737043e-02
     6    9.309365203489e-02
     7   -5.532682258874e-02
     8   -8.158161374034e-03
     9    5.484029822376e-03
    10    2.121941151274e-02
    11   -7.549438474256e-04
    12   -6.697031564097e-04
    13   -1.380821009655e-02
    14   -5.995363088090e-03
    15    6.831049950167e-02
    16   -1.571210031177e-01
    17   -2.018578747066e-01
    18    6.169293525944e-02
    19    1.176060777405e-02
    20    1.583550883513e-01
    21    3.679412053925e-02
    22    1.352183408883e-02
    23    4.401695310135e-02
    24    1.634057304821e-02
    25   -2.262920019967e-02
    26   -1.016568842750e-02
    27   -1.063763280295e-02
    28   -8.197476371563e-03
    29   -1.228770174939e-01
    30    2.829574553270e-01
    31    3.632299380744e-01
    32    4.721730828216e-02
    33   -9.383662340554e-02
    34    7.117266686919e-02
    35    2.767949871937e-02
    36   -4.775198755616e-02
    37   -7.270282032190e-03
    38   -1.819870988128e-02
    39   -4.133586005106e-03
    40    6.922287172033e-03
    41   -8.281658037346e-03
    42   -1.114738548448e-02
    43   -5.888417964277e-02
    44    1.356303374890e-01
    45    1.737840639650e-01
    46   -1.822522962802e-02
    47    3.945771271138e-02
    48    1.713437787428e-01
    49   -1.006157012857e-02
    50    2.936467187361e-02
    51    5.110088697641e-02
    52   -1.014657946284e-02
    53   -9.902526945906e-03
    54    2.869210755902e-02
    55   -8.080508393540e-03
    56   -6.830179965352e-03
Sym=X
Ene= -0.685760
Spin=Alpha
Occup=1
     1    4.694699970228e-02
     2   -9.757662298135e-02
     3   -2.192026023231e-01
     4    2.039495488402e-01
     5   -3.636946904525e-06
     6    2.003846168519e-01
     7    1.073691653645e-01
     8   -4.731520244389e-06
     9    1.050504813948e-01
    10    8.861820639956e-03
    11    3.244663378818e-02
    12   -9.538785379313e-05
    13    1.651695627633e-02
    14    9.463596100819e-05
    15    4.695928151141e-02
    16   -9.753915416861e-02
    17   -2.197983440385e-01
    18   -2.312074778984e-01
    19   -1.333857392568e-01
    20    9.678483610598e-02
    21   -1.210039411869e-01
    22   -6.992618872957e-02
    23    5.051886322166e-02
    24   -1.209157600630e-02
    25   -1.787390102605e-02
    26   -1.037301394909e-02
    27    1.430305356806e-02
    28    2.473675488152e-02
    29    4.692465900646e-02
    30   -9.759049154814e-02
    31   -2.185225640794e-01
    32    9.854559788583e-02
    33   -1.361518490279e-01
    34   -2.337307487778e-01
    35    5.210768311932e-02
    36   -7.169143451054e-02
    37   -1.232794546690e-01
    38    1.841718562321e-02
    39   -1.817791399643e-02
    40    2.501551341703e-02
    41   -3.529437897041e-03
    42   -1.052740045489e-02
    43    4.694624215000e-02
    44   -9.757290297950e-02
    45   -2.191850377264e-01
    46   -6.802501790925e-02
    47    2.695290488552e-01
    48   -6.677923808288e-02
    49   -3.552863051583e-02
    50    1.416057785040e-01
    51   -3.529877806446e-02
    52   -1.563769616347e-02
    53    3.607575881081e-03
    54   -1.430937929911e-02
    55   -2.702427311772e-02
    56   -1.454021865405e-02
Sym=X
Ene= -0.571335
Spin=Alpha
Occup=1
     1    4.660295733874e-02
     2   -1.221270466869e-01
     3   -1.527722785624e-01
     4    8.112576062748e-03
     5   -1.088748037559e-01
     6    2.772218555685e-01
     7    3.409558092976e-02
     8   -5.987920346878e-02
     9    1.817459669765e-01
    10    2.355299316759e-02
    11    4.215515391957e-03
    12   -1.381017545791e-02
    13   -5.518466136759e-03
    14   -5.208089530373e-03
    15   -7.914384774709e-02
    16    2.077073314359e-01
    17    2.590517831095e-01
    18    2.441177578429e-01
    19    1.652081464976e-01
    20   -1.803877362097e-01
    21    1.919157969912e-01
    22    1.236764905943e-01
    23   -1.233586860238e-01
    24   -2.020418446948e-03
    25    9.605763095759e-03
    26    8.176489399717e-03
    27   -2.071709274381e-03
    28   -7.378925463579e-03
    29    1.537968142537e-02
    30   -4.022034466478e-02
    31   -5.056956758091e-02
    32   -2.039904483873e-01
    33   -1.685029010644e-01
    34   -6.913173027448e-02
    35   -1.073122330058e-01
    36   -9.934055982212e-02
    37   -4.889849586194e-02
    38    1.397695466281e-03
    39    1.673102011829e-02
    40    1.753162055317e-02
    41   -1.852419763433e-02
    42    1.372596619908e-02
    43    1.690831486897e-02
    44   -4.421860326557e-02
    45   -5.570158233583e-02
    46   -2.647602135220e-01
    47    7.602922969400e-03
    48   -2.218529875405e-03
    49   -1.481913103324e-01
    50    1.815569578791e-02
    51   -4.559772505135e-03
    52   -6.664191974377e-03
    53    9.199726011227e-04
    54   -5.118304255620e-04
    55    1.592863163090e-02
    56   -2.776467757937e-02
Sym=X
Ene= -0.570199
Spin=Alpha
Occup=1
     1   -4.945782397280e-02
     2    1.298221212719e-01
     3    1.616069036029e-01
     4   -1.478398681357e-01
     5   -2.129066118034e-01
     6   -1.517833767413e-01
     7   -1.130757652747e-01
     8   -1.171961894194e-01
     9   -1.148607544717e-01
    10    1.253138369857e-03
    11   -9.909951345414e-03
    12   -1.882659049005e-02
    13    2.158237703115e-03
    14   -1.780160690998e-02
    15   -1.545653337222e-02
    16    4.055414772950e-02
    17    5.064709612780e-02
    18    1.979642364828e-01
    19   -1.526197203529e-01
    20    7.388449000532e-02
    21    1.194478248359e-01
    22   -7.689642909481e-02
    23    3.601881029393e-02
    24    1.486210782220e-02
    25    3.078534420307e-04
    26   -1.129430314424e-02
    27   -2.330161970194e-02
    28    1.281933658779e-02
    29   -1.297323945440e-02
    30    3.406735803105e-02
    31    4.225107129928e-02
    32    8.167242987477e-02
    33   -1.700819253323e-01
    34    2.042757511632e-01
    35    4.088609851754e-02
    36   -8.852764206255e-02
    37    1.227234078737e-01
    38   -2.900280806639e-02
    39   -3.211594113211e-04
    40    1.322396207984e-02
    41   -3.103461549349e-04
    42   -1.166588888268e-02
    43    7.788060637929e-02
    44   -2.044498807927e-01
    45   -2.544271711597e-01
    46   -3.386916675207e-02
    47    3.413727515076e-01
    48   -1.571584466690e-02
    49   -3.596010750571e-02
    50    2.540519918512e-01
    51   -2.450052742504e-02
    52   -7.781141242705e-03
    53    6.388266071741e-04
    54    2.568497307606e-03
    55   -1.311989963070e-02
    56    5.917585072873e-04
Sym=X
Ene= -0.569000
Spin=Alpha
Occup=1
     1   -4.550200680886e-02
     2    1.196651943715e-01
     3    1.481042957773e-01
     4   -2.687469080983e-01
     5    1.191609790626e-01
     6   -3.940403123395e-03
     7   -1.774586964261e-01
     8    6.561703553637e-02
     9   -3.127581731638e-02
    10    1.647980426054e-02
    11   -3.778272162081e-03
    12    5.462025532732e-03
    13   -1.702453747295e-02
    14    1.477491818281e-02
    15   -1.535622889117e-02
    16    4.046125952412e-02
    17    4.985542414240e-02
    18    6.542018283554e-02
    19    1.687892244335e-01
    20    1.961557597331e-01
    21    4.770622757774e-02
    22    9.931859241588e-02
    23    1.034260057625e-01
    24    1.636909840299e-02
    25   -1.582441965620e-02
    26   -1.351012810074e-02
    27    8.370739109909e-03
    28   -1.756572720714e-02
    29    7.896650453638e-02
    30   -2.073633004948e-01
    31   -2.574487429290e-01
    32    1.727002873067e-01
    33   -1.685610850011e-01
    34   -2.471251096675e-01
    35    1.196656346537e-01
    36   -1.272150938907e-01
    37   -1.944241489871e-01
    38    9.773833377538e-04
    39   -8.776651658082e-03
    40    7.148088099992e-03
    41    2.299949227035e-03
    42   -8.240853106226e-03
    43   -1.835810581433e-02
    44    4.836896986740e-02
    45    5.948355491534e-02
    46    6.530126525108e-03
    47   -1.516614567656e-02
    48    2.764887101136e-01
    49    7.799338820012e-03
    50   -2.439927493366e-02
    51    1.571232133936e-01
    52   -1.679843719213e-02
    53   -1.880013122475e-03
    54    2.854054925150e-02
    55   -2.003753146812e-03
    56    6.711637520215e-04
Sym=X
Ene= -0.536731
Spin=Alpha
Occup=1
     1   -1.025726081773e-03
     2    3.261656168681e-03
     3    2.207732346953e-03
     4   -1.635401705257e-01
     5    2.292260251710e-01
     6    1.593484952425e-01
     7   -1.105497737458e-01
     8    1.537484934287e-01
     9    1.060214060073e-01
    10    2.414286860774e-02
    11   -8.201393643434e-03
    12    2.545749061896e-02
    13    2.175363288155e-03
    14    2.677098075054e-03
    15    7.016223721291e-04
    16   -1.655803335220e-03
    17   -2.607464999727e-03
    18    1.513351008453e-01
    19   -2.955671821874e-01
    20   -3.623075135227e-02
    21    1.011083138639e-01
    22   -1.980244996598e-01
    23   -2.415587695152e-02
    24   -1.658141285806e-02
    25    7.334402488432e-03
    26   -1.987289779537e-02
    27   -2.507796805424e-02
    28    3.276650097560e-03
    29   -5.503528828020e-04
    30    1.912228340548e-03
    31    8.663145751954e-04
    32   -3.012446673251e-01
    33   -2.247494814876e-02
    34   -1.105309441139e-01
    35   -2.026781448905e-01
    36   -1.471271846629e-02
[...]
    14    3.719307258632e-01
    15    6.791856924019e-02
    16    2.370834718832e-01
    17   -1.552337516329e+00
    18    2.712983489971e-01
    19    1.142290625385e-01
    20   -5.844488403094e-02
    21    3.332938766738e-01
    22    3.655682835138e-01
    23   -3.761296519493e-01
    24    1.077891744158e-01
    25    1.426537069095e-01
    26    1.615567773601e-02
    27    3.233374826731e-01
    28    3.063550636948e-01
    29   -3.471662266403e-02
    30   -1.607088270656e-01
    31    8.029728563628e-01
    32    1.577171530352e-02
    33   -1.483743103267e-01
    34   -5.771332218277e-02
    35    1.934959723241e-01
    36    1.964690903899e-01
    37   -4.174945776703e-01
    38    1.311442284321e-01
    39   -1.207574657098e-01
    40   -1.490913637181e-01
    41    3.791748634038e-01
    42    2.948254575650e-01
    43   -5.674153031956e-02
    44   -2.436599691700e-01
    45    1.300187717445e+00
    46   -1.065299603829e-01
    47    2.017301009572e-01
    48    9.945427362438e-03
    49    9.226393583934e-02
    50    4.641180392866e-01
    51   -3.508430200282e-01
    52   -1.660939201039e-01
    53   -8.711702493862e-02
    54   -2.779825825503e-01
    55    2.970382737822e-01
    56    3.009394995961e-01
Sym=X
Ene= 2.342398
Spin=Alpha
Occup=0
     1    7.812326289213e-02
     2    3.006774467202e-01
     3   -1.772963853920e+00
     4   -1.991246576475e-01
     5   -6.767673606307e-04
     6   -2.464692585183e-01
     7   -5.434044936233e-01
     8    9.365028172100e-05
     9   -3.991020517070e-01
    10    2.623710396950e-01
    11    1.630387882062e-01
    12   -1.181735190656e-01
    13    6.352415750010e-02
    14    7.782254811597e-02
    15   -4.094500588197e-02
    16   -1.380016630709e-01
    17    9.091980755750e-01
    18   -9.668601619885e-02
    19   -1.103692743816e-01
    20    1.362276122749e-01
    21   -4.485911635685e-01
    22   -5.848786331105e-02
    23   -1.694372718378e-01
    24   -1.031711502691e-01
    25    3.216703865299e-01
    26    2.935948605411e-01
    27    2.085162577769e-01
    28   -7.684941035350e-03
    29   -1.038854701443e-02
    30   -4.066890617232e-02
    31    2.593411891912e-01
    32    1.109851675510e-01
    33   -2.642978621189e-02
    34    7.597314433523e-03
    35   -3.300815710973e-01
    36   -1.898608862499e-02
    37   -2.464401794206e-01
    38    2.956823303126e-01
    39    5.160978847631e-01
    40    7.073460305758e-02
    41    1.994190977319e-01
    42   -1.482449054393e-01
    43   -2.607440800180e-02
    44   -8.865635111657e-02
    45    5.907946192853e-01
    46    5.658814687966e-02
    47    1.386680702497e-01
    48    1.747471965098e-02
    49   -3.641260306004e-01
    50    8.292973526435e-02
    51   -2.268774568756e-01
    52    1.807799010985e-01
    53    4.953945258412e-01
    54    1.296590708268e-02
    55    1.577782159416e-01
    56   -1.683770982513e-01
Sym=X
Ene= 2.345150
Spin=Alpha
Occup=0
     1   -1.203593972832e-02
     2   -3.314408480666e-02
     3    2.957564955512e-01
     4    8.827205267857e-02
     5   -8.014680174076e-02
     6   -3.180239111191e-03
     7   -1.059698662226e-01
     8    3.090646011014e-01
     9    2.565577025155e-01
    10    3.733556594781e-01
    11   -2.386235623305e-01
    12    4.370150243084e-01
    13    1.693186320747e-01
    14   -3.300363315605e-02
    15   -8.145853727371e-03
    16   -8.305503138628e-03
    17    1.838613559520e-01
    18   -1.258791742372e-02
    19   -1.079172864002e-01
    20   -3.495330597900e-02
    21   -1.506247124580e-01
    22    2.999320542806e-01
    23    2.298903752185e-01
    24    3.563812049241e-01
    25   -2.838704405322e-01
    26    3.544071239600e-01
    27    1.870047514880e-01
    28   -3.895723998576e-02
    29    7.572114265912e-02
    30    3.067720156671e-01
    31   -1.729875329356e+00
    32   -9.271923525149e-02
    33    1.021588539467e-01
    34    2.633779421438e-01
    35   -2.342215898218e-01
    36    4.470627053234e-01
    37    4.516167952989e-01
    38    3.150511841047e-01
    39   -1.592690240664e-01
    40   -1.267435616285e-02
    41   -2.443645834687e-02
    42    3.673957680462e-02
    43   -5.357997586674e-02
    44   -1.775012198038e-01
    45    1.214358911119e+00
    46   -3.575803592893e-02
    47    2.086870466413e-01
    48   -1.308676454962e-01
    49   -1.800124318732e-01
    50    4.747639087050e-01
    51    1.913944859641e-01
    52   -6.777776361175e-02
    53   -9.746285294450e-02
    54    4.290240442824e-01
    55    6.245506071874e-02
    56   -5.605832223314e-02
Sym=X
Ene= 2.493600
Spin=Alpha
Occup=0
     1    2.051350029966e-02
     2    8.607833455872e-01
     3   -3.503818880355e-01
     4    3.525463682821e-01
     5   -1.639531104592e-06
     6    3.536059634144e-01
     7   -3.417529102112e-01
     8   -4.189017027203e-04
     9   -3.591916097383e-01
    10   -9.479394002692e-02
    11   -2.628235297997e-01
    12   -1.940041442728e-02
    13   -1.217011639502e-01
    14    1.872447603642e-02
    15    2.261072806162e-02
    16    8.597521451287e-01
    17   -3.902533250413e-01
    18   -3.961987839948e-01
    19   -2.266950210035e-01
    20    1.679512362637e-01
    21    4.131112902154e-01
    22    2.317653101045e-01
    23   -1.802709587130e-01
    24    9.508353284508e-02
    25    1.589279329985e-01
    26    7.597810025445e-02
    27   -1.113721212699e-01
    28   -1.866302925242e-01
    29    1.821802525834e-02
    30    8.605147243442e-01
    31   -3.042414834949e-01
    32    1.731478519633e-01
    33   -2.440512621790e-01
    34   -4.163369854964e-01
    35   -1.579831437339e-01
    36    2.331937245851e-01
    37    3.909596156035e-01
    38   -1.557763350352e-01
    39    1.340160559879e-01
    40   -2.158577324242e-01
    41    2.805584082539e-02
    42    9.328062375862e-02
    43    2.057948623176e-02
    44    8.604933352600e-01
    45   -3.508325827582e-01
    46   -1.219251224746e-01
    47    4.702450781051e-01
    48   -1.133394350124e-01
    49    1.286855636435e-01
    50   -4.673345929922e-01
    51    1.047022121530e-01
    52    1.282393204384e-01
    53   -2.883156677971e-02
    54    1.001133807279e-01
    55    2.182050058939e-01
    56    1.336690000057e-01
Sym=X
Ene= 2.625132
Spin=Alpha
Occup=0
     1   -4.380885716426e-04
     2   -1.111294306332e-02
     3    8.871915140539e-03
     4    5.059691699339e-02
     5   -7.644046732718e-02
     6   -5.873996248603e-02
     7   -1.117969186351e-01
     8    1.649317290014e-01
     9    1.243726836271e-01
    10    1.366521848851e-01
    11    1.495302711469e-01
    12    3.629747783430e-03
    13   -3.634075860515e-01
    14    4.154472532081e-01
    15   -2.582567417012e-04
    16   -5.830961023221e-03
    17    3.691920756315e-04
    18   -4.642140704041e-02
    19    9.544373473371e-02
    20    1.148787853804e-02
    21    1.062078682685e-01
    22   -2.076403694676e-01
    23   -2.492754405268e-02
    24    2.423575973078e-01
    25    1.067063061354e-01
    26    1.158970512607e-01
    27   -2.943283010399e-01
    28    4.180956812698e-01
    29   -3.508316650924e-04
    30   -9.556194560534e-03
    31    5.632631304916e-03
    32    9.927352996506e-02
    33    8.083307148656e-03
    34    4.294383056208e-02
    35   -2.174306942110e-01
    36   -1.701029812774e-02
    37   -8.887990368814e-02
    38    1.539698444976e-01
    39    4.029636590027e-02
    40    5.171932124636e-02
    41   -3.739921372770e-01
    42    4.380327177455e-01
    43   -1.942020931478e-04
    44   -4.428770183626e-03
    45   -2.333453681974e-03
    46   -1.025434635153e-01
    47   -2.761812031264e-02
    48    4.613738122845e-03
    49    2.282058979880e-01
    50    5.661240153924e-02
    51   -8.963362067632e-03
    52    2.342934669722e-01
    53    1.887014087962e-01
    54    9.724701227107e-02
    55   -3.592368524664e-01
    56    3.602004296459e-01
Sym=X
Ene= 2.633354
Spin=Alpha
Occup=0
     1    3.842529121011e-04
     2    9.921124463212e-03
     3   -7.859777871803e-03
     4   -4.737603019859e-02
     5   -7.304648392696e-02
     6    5.470262388509e-02
     7    1.117999663545e-01
     8    1.679503426862e-01
     9   -1.231597023999e-01
    10   -3.930327303163e-01
    11    1.445098140929e-01
    12    4.251992914041e-01
    13   -7.588628980919e-02
    14    7.164807613595e-03
    15    3.699446350365e-04
    16    8.702607125694e-03
    17   -6.403874789169e-03
    18    3.283287849931e-02
    19    5.660979174669e-03
    20    9.779729216786e-02
    21   -7.846704012932e-02
    22   -1.287085723402e-02
    23   -2.216403411292e-01
    24   -3.948716605716e-01
    25    4.736320050495e-02
    26    4.293882277233e-01
    27   -5.510460592718e-02
    28    4.985820818588e-02
    29    2.013868407519e-04
    30    4.893753497284e-03
    31    7.231523585547e-04
    32    1.295322433912e-02
    33    9.067854207665e-02
    34   -5.080601229775e-02
    35   -2.929099174751e-02
    36   -2.067330661776e-01
    37    1.103824392611e-01
    38   -3.877857055238e-01
    39    1.050367720850e-01
    40    4.237193114031e-01
    41    5.925480029116e-02
    42    1.358124162236e-01
    43    1.693229918777e-04
    44    3.548852895462e-03
    45    2.563846947301e-03
    46    1.549713368502e-03
    47   -2.270856729829e-02
    48   -1.027104700957e-01
    49   -4.361458446266e-03
    50    5.481653072297e-02
    51    2.288227498401e-01
    52   -4.173318625609e-01
    53    1.770090373728e-01
    54    3.639424455485e-01
    55    2.091481859262e-02
    56    1.016734171935e-01
Sym=X
Ene= 2.960389
Spin=Alpha
Occup=0
     1    2.653207269335e-03
     2    1.375807937235e-02
     3   -1.089534642131e-01
     4    1.108950421576e-01
     5   -1.685611357020e-01
     6   -1.284935323005e-01
     7    2.232791536985e-01
     8   -3.721774419709e-01
     9   -3.050598860594e-01
    10   -2.752902193027e-01
    11    1.436009843658e-03
    12   -2.390298303977e-01
    13    7.859157783750e-02
    14   -1.522487851138e-01
    15    3.599622093700e-02
    16    2.612866983468e-01
    17   -1.050238755935e+00
    18    1.168613284630e-01
    19   -1.651487641162e-01
    20   -1.232099738935e-01
    21    6.118451243401e-01
    22   -1.612332223594e-01
    23   -4.180863390937e-01
    24   -5.151029921835e-02
    25    3.238084190158e-01
    26   -1.907591890703e-02
    27   -3.392995090907e-01
    28   -1.187874536939e-02
    29   -1.404761266543e-01
    30   -1.014759393448e+00
    31    4.070932898920e+00
    32    1.170680010194e-01
    33   -1.722866931587e-01
    34   -1.332362502056e-01
    35    8.311714553474e-01
    36   -1.170305179142e+00
    37   -1.657402982706e+00
    38    3.947104854051e-01
    39   -5.317198179284e-01
    40    7.205059227415e-01
    41   -1.496221265757e-01
    42   -3.607046985298e-01
    43    9.995745370276e-02
    44    7.240296957109e-01
    45   -2.905484315565e+00
    46    1.167303585596e-01
    47   -1.744214836756e-01
    48   -1.199211589324e-01
    49    5.421994310820e-01
    50   -1.513718435787e+00
    51    2.041815636792e-02
    52    3.638884524028e-01
    53   -1.939805229426e-02
    54    4.180888481050e-02
    55    5.656412177990e-01
    56    4.374040747363e-01
Sym=X
Ene= 2.961599
Spin=Alpha
Occup=0
     1   -1.523167526860e-01
     2   -1.102197653632e+00
     3    4.416887899047e+00
     4    1.721067977009e-01
     5   -9.392056158267e-03
     6    1.795568278359e-01
     7    1.678109365520e+00
     8   -2.085219133893e-02
     9    1.675779341717e+00
    10    2.812602068249e-01
    11    9.840395065715e-01
    12   -7.112069670472e-03
    13    4.884838407841e-01
    14   -1.477552107971e-02
    15    4.764697160197e-02
    16    3.503316110344e-01
    17   -1.358854357747e+00
    18    1.633221814984e-01
    19   -9.969370605005e-03
    20    1.635573611238e-01
    21    8.272006916894e-01
    22    2.465904942910e-01
    23    1.624436582849e-01
    24    2.454622566263e-01
    25   -7.080232377533e-02
    26   -3.446683422291e-02
    27   -3.436405375260e-01
    28   -2.735621311865e-01
    29    4.813425676123e-02
    30    3.427133924246e-01
    31   -1.418465278375e+00
    32    1.674177622799e-01
    33   -5.202880752894e-03
    34    1.768165150079e-01
    35    1.769346106641e-01
    36    2.600666986929e-01
    37    8.555184190938e-01
    38   -4.350776350944e-01
    39   -7.362672283409e-02
    40   -2.899782323610e-01
    41    4.726023592114e-02
    42   -3.841969325131e-02
    43    5.656051447105e-02
    44    4.093570489472e-01
    45   -1.639656455245e+00
    46    1.683952881102e-01
    47   -1.385524456239e-02
    48    1.673665225893e-01
    49    5.349720294746e-01
    50   -6.686663795829e-01
    51    5.254777507343e-01
    52    8.540645990516e-02
    53   -2.362937738875e-01
    54    3.377266758871e-01
    55    1.389144286590e-01
    56    3.437140684375e-01
Sym=X
Ene= 2.962766
Spin=Alpha
Occup=0
     1    5.975431809234e-03
     2    4.853289787367e-02
     3   -1.419548264283e-01
     4   -1.175364161126e-01
     5   -1.650470489629e-01
     6    1.149019013969e-01
     7   -3.114502286779e-01
     8   -3.645331906521e-01
     9    2.027658995135e-01
    10    1.957367107066e-01
    11    9.119329844796e-03
    12   -1.414986736068e-01
    13   -2.027890100853e-01
    14   -2.426786615290e-01
    15   -1.400138604225e-01
    16   -1.015179719041e+00
    17    4.061749595930e+00
    18   -1.311601860585e-01
    19   -1.722855575457e-01
    20    1.174532234734e-01
    21   -1.655298180103e+00
    22   -1.172811430580e+00
    23    8.334654440750e-01
    24   -3.317792200912e-01
    25   -5.391724905907e-01
    26   -3.634168982875e-01
    27    2.611594089160e-01
    28    7.193422256055e-01
    29    3.559927710523e-02
    30    2.568655658411e-01
    31   -1.025511974473e+00
    32   -1.244095055115e-01
    33   -1.657205071467e-01
    34    1.145526702039e-01
    35   -4.214447090409e-01
    36   -1.655261008515e-01
    37    5.956926789042e-01
    38   -2.566897972462e-01
    39    3.242287407354e-01
    40   -1.052586001881e-02
    41   -2.204048203523e-01
    42   -2.390870766233e-02
    43    1.002729288159e-01
    44    7.250275656767e-01
    45   -2.900368305992e+00
    46   -1.218006750372e-01
    47   -1.748566323267e-01
    48    1.138144905475e-01
    49    1.056596619017e-02
    50   -1.516454477253e+00
    51    5.316624668871e-01
    52    3.163654846839e-01
    53   -1.337593044987e-02
    54    4.325478339487e-01
    55    5.982574613421e-01
    56    3.358304564135e-02
Sym=X
Ene= 3.178394
Spin=Alpha
Occup=0
     1    6.850049097773e-05
     2    1.222868431525e-02
     3   -9.754964749568e-03
     4   -4.790223373709e-02
     5   -7.836239801558e-02
     6    5.740421462239e-02
     7   -3.654442735266e-01
     8   -5.356375491205e-01
     9    3.565577080271e-01
    10    4.213132594823e-01
    11    1.193870097873e-01
    12   -2.880274474134e-01
    13   -4.805576620932e-01
    14   -6.103243467836e-01
    15   -8.530750612429e-05
    16   -1.008763850965e-02
    17    8.817164931244e-03
    18   -3.917067203720e-02
    19    8.019700678650e-03
    20   -9.640008056477e-02
    21   -3.034551855899e-01
    22    3.867110855761e-02
    23   -6.429521975985e-01
    24   -3.083033839047e-01
    25    6.716385903018e-01
    26    2.098424897980e-01
    27    4.399940450380e-01
    28    1.817424403702e-01
    29    2.036814628949e-05
    30   -2.133351201543e-03
    31    1.025844300016e-03
    32    4.310609554625e-02
    33    4.762797968514e-02
    34   -7.950902220942e-03
    35    2.933810208178e-01
    36    3.160075280006e-01
    37   -6.177388614227e-02
    38    4.711853229758e-02
    39   -3.735900846369e-01
    40   -2.094723773934e-01
    41    3.223357898155e-01
    42    1.187804237338e-01
    43    4.116512442051e-06
    44    1.025379339556e-04
    45   -1.310022233527e-04
    46    5.386314703579e-02
    47    2.637140487848e-02
    48    5.145621365536e-02
    49    3.665133207792e-01
    50    1.778801429248e-01
    51    3.453639093863e-01
    52   -1.577861557985e-01
    53   -4.218137542081e-01
    54    2.847033886588e-01
    55   -2.819208130963e-01
    56    3.093079908967e-01
Sym=X
Ene= 3.182305
Spin=Alpha
Occup=0
     1   -3.462749291746e-05
     2   -5.829916122214e-03
     3    4.669143522761e-03
     4    2.359790402947e-02
     5   -2.220484058053e-03
     6   -2.812747859166e-02
     7    1.740827149538e-01
     8   -7.869540483810e-03
     9   -1.698387483184e-01
    10   -2.487077844155e-01
    11   -1.551637792787e-03
    12   -8.309455531161e-02
    13    1.460008802016e-01
    14    6.788554558860e-02
    15    1.135483535971e-04
    16    3.528857417083e-03
    17   -5.077226566369e-03
    18    4.703436869395e-02
    19   -8.867765483261e-02
    20   -6.990639761451e-03
    21    3.241190757513e-01
    22   -5.841697623758e-01
    23   -4.646140660374e-02
    24   -2.283005962495e-01
    25    1.676739139398e-01
    26   -3.641201855252e-01
    27   -6.701810639655e-01
    28    2.365283908145e-01
    29    1.203280032185e-04
    30    3.622632718038e-03
    31   -5.307550607481e-03
    32    5.856895454947e-03
    33    8.868149338998e-02
    34   -5.040246766826e-02
    35    3.913354807990e-02
    36    5.945285299310e-01
    37   -3.231289524380e-01
    38    4.699072277699e-01
    39   -1.606195620918e-01
    40   -2.374439710008e-01
    41    5.403613008202e-01
    42    3.727580533454e-01
    43   -1.989881863175e-04
    44   -1.318861468503e-03
    45    5.714567053371e-03
    46   -7.997167844490e-02
    47    1.132593220650e-03
    48    8.209519252341e-02
    49   -5.345774786782e-01
    50    5.419033656811e-03
    51    5.423354694506e-01
    52    9.702789334624e-03
    53   -6.599147496024e-03
    54    6.837472149461e-01
    55   -1.187126596243e-02
    56   -6.780067334358e-01
Sym=X
Ene= 3.186050
Spin=Alpha
Occup=0
     1   -7.645708350138e-05
     2   -1.223298822216e-02
     3    9.818520436075e-03
     4    5.116588149300e-02
     5   -8.368838657599e-02
     6   -6.067617951413e-02
     7    3.650929139407e-01
     8   -5.413683660873e-01
     9   -3.561841880144e-01
    10   -6.261568396810e-01
    11    1.170814837725e-01
    12   -6.097581691019e-01
    13    1.258819868345e-01
    14   -2.982490847054e-01
    15   -2.987597047705e-05
    16    2.124461884406e-03
    17   -5.424492553986e-04
    18   -1.094735514095e-02
    19    4.865257174770e-02
    20    4.504174316235e-02
    21   -6.342720579505e-02
    22    3.238030147451e-01
    23    2.922194122769e-01
    24    2.605465213935e-01
    25   -3.728495853770e-01
    26    1.273876068122e-01
    27    2.080609051636e-01
    28   -2.098493748070e-01
    29    1.144158570684e-04
    30    1.014614203650e-02
    31   -9.318903634740e-03
    32   -9.985640167743e-02
    33    3.744037287898e-03
    34   -4.996266392950e-02
    35   -6.606670861235e-01
    36    3.952476195609e-02
    37   -2.893273124931e-01
    38    5.260082518224e-01
    39    6.863882506702e-01
    40    1.804634398857e-01
    41   -5.045233318425e-02
    42    2.126231972356e-01
    43   -3.348149450306e-07
    44    7.404080197665e-05
    45   -7.280838051071e-07
    46    5.484663592368e-02
    47    2.771794573505e-02
    48    5.580100651467e-02
    49    3.614845723246e-01
    50    1.810450120251e-01
    51    3.627372641742e-01
    52   -1.592651332103e-01
    53   -4.262436659172e-01
    54    3.022593900890e-01
    55   -2.852795483647e-01
    56    2.984431083795e-01
[5D]

======= END OF MOLDEN-FORMATTED INPUT FILE =======


        *************************************************************
        *                                                           *
        *  Thank you very much for using Q-Chem.  Have a nice day.  *
        *                                                           *
        *************************************************************


0 sent ACK to 0 
now end server 0 ... 
