 --invoking executable--
/usr/local/cfour/bin/xjoda


   *************************************************************************
         <<<     CCCCCC     CCCCCC   |||     CCCCCC     CCCCCC   >>>
       <<<      CCC        CCC       |||    CCC        CCC         >>>
      <<<      CCC        CCC        |||   CCC        CCC            >>>
    <<<        CCC        CCC        |||   CCC        CCC              >>>
      <<<      CCC        CCC        |||   CCC        CCC            >>>
       <<<      CCC        CCC       |||    CCC        CCC         >>>
         <<<     CCCCCC     CCCCCC   |||     CCCCCC     CCCCCC   >>>
   *************************************************************************

     ****************************************************************
     * CFOUR Coupled-Cluster techniques for Computational Chemistry *
     ****************************************************************


   Department of Chemistry                Institut fuer Physikalische Chemie
   University of Florida                  Universitaet Mainz
   Gainesville, FL 32611, USA             D-55099 Mainz, Germany

   Department of Chemistry                Fakultaet fuer Chemie und Biowiss.
   Johns Hopkins University               Karlsruher Institut fuer Technologie
   Baltimore, MD 21218, USA               D-76131 Karlsruhe, Germany

   Department of Chemistry                Department of Physical Chemistry
   Southern Methodist University          Eotvos Lorand University
   Dallas, TX 75275, USA                  H-1053 Budapest, Hungary


                       Version 2.1

                     vladimir-Kubuntu-16                               
                     Сб авг 31 13:31:02 +07 2019                  
                     integer*8 version is running

********************************************************************************
*                          Input from ZMAT file                                *
********************************************************************************
test HF/def2-SVP energy                                                         
N       0.5200      0.5300      0.5100                                          
N      -0.5200     -0.5200      0.5200                                          
N      -0.5200      0.5200     -0.5200                                          
N       0.5200     -0.5200     -0.5200                                          
                                                                                
*CFOUR(CALC=HF                                                                  
SCF_CONV=9                                                                      
CHARGE=1                                                                        
MULT=2                                                                          
BASIS=svp                                                                       
COORD=CARTESIAN)                                                                
                                                                                
********************************************************************************
  @GTFLGS-I, Calculation type set to UHF.
    -------------------------------------------------------------------
                    CFOUR Control Parameters 
    -------------------------------------------------------------------
        External           Internal           Value            Units
          Name               Name
    -------------------------------------------------------------------
       ABCDTYPE             IABCDT         STANDARD    [  0]    ***   
       ANHARMONIC           IANHAR         OFF         [  0]    ***   
       ANH_ALGORIT          IANALG         STANDARD    [  0]    ***   
       ANH_DERIVAT          IANDER         SECOND      [  1]    ***   
       ANH_MODE             ANHMOD         VIBRATION   [  0]    ***   
       ANH_STEPSIZ          ICUBST             50000          x 10-6  
       ANH_SYMMETR          IANHSM         ABELIAN     [  0]    ***   
       AO_LADDERS           IAOLAD         SINGLEPASS  [  1]    ***   
       AV_SCF               IAVSCF         OFF         [  0]    ***   
       BASIS                IBASIS         svp         [ 28]    ***   
       BOTHVECTORS          BOTHVC         OFF         [  0]    ***   
       BOX_POTENT           IPIAB          OFF         [  0]    ***   
       BREIT                IBREIT         OFF         [  0]    ***   
       BRUCK_CONV           IBRTOL          10D-  4             ***   
       BRUECKNER            IBRKNR         OFF         [  0]    ***   
       BUFFERSIZE           IBUFFS              4096            ***   
       CACHE_RECS           ICHREC             10               ***   
       CALCLEVEL            ICLLVL         SCF         [  0]    ***   
       CCORBOPT             ICCORB         OFF         [  0]  x 0.01  
       CC_CONV              ICCCNV          10D-  7             ***   
       CC_EXPORDER          ICCEOR              0               ***   
       CC_EXTRAPOL          ICCEXT         DIIS        [  1]    ***   
       CC_GUESS             ICCGES         MP2         [  0]    ***   
       CC_MAXCYC            ICCCYC              0              cycles 
       CC_PROGRAM           ICCPRO         VCC         [  0]    ***   
       CHARGE               ICHRGE              1               ***   
       CHOLESKY             ICHOLE         OFF         [  0]    ***   
       CIS_CONV             ICISTL              5               ***   
       COMM_SIZE            IPSIZE            ***               ***   
       CONSTANT             ICONST         OLD         [  1]    ***   
       CONTINUUM            ICONTU         NONE        [  0]    ***   
       CONTRACTION          ICNTYP         GENERAL     [  1]    ***   
       COORDINATES          ICOORD         CARTESIAN   [  1]    ***   
       CPHF_CONVER          ICPHFT          10D- 16             ***   
       CPHF_MAXCYC          ICPHFC             64              cycles 
       CUBIC                ICUBIC         OFF         [  0]    ***   
       CURVILINEAR          ICURVY         OFF         [  0]    ***   
       DBOC                 IDBOC          OFF         [  0]    ***   
       DCT                  IDCT           OFF         [  0]    ***   
       DERIV_LEV            IDRLVL         ZERO        [  0]    ***   
       DEVMEM_SIZE          IDVMEM          50000000           MByte  
       DIAG_MRCC            IEOMST          10D-  0             ***   
       DIFF_TYPE            IDIFTY         RELAXED     [  0]    ***   
       DIRECT               IDIRCT         OFF         [  0]    ***   
       DROPMO               IDRPMO      NONE         
       ECP                  IECP           OFF         [  0]    ***   
       EIGENVECTOR          IVEC                1               ***   
       EL_ANHARM            IELANH         OFF         [  0]    ***   
       EOMFOLLOW            IEOMSR         ENERGY      [  0]    ***   
       EOMIP                IEOMIP         OFF         [  0]    ***   
       EOMLEVEL             HBARFM         SAME        [  0]    ***   
       EOM_MRCC             IMRCCE         NEW         [  1]    ***   
       EOM_NONIT            EOMNON         OFF         [  0]    ***   
       EOM_NSING            IEOMSI          10D-  0             ***   
       EOM_NSTATES          IMRCCD         DAVIDSON    [  0]    ***   
       EOM_NTRIP            IEOMTR          10D-  0             ***   
       EOM_ORDER            IEXORD         ENERGY      [  0]    ***   
       EOM_PROPSTA          IEOMST              0               ***   
       ESTATE_CONV          IEXTOL          10D-  5             ***   
       ESTATE_DIAG          IEXDIG         ITERATIVE   [  0]    ***   
       ESTATE_LOCK          IESLOC         ON          [  1]    ***   
       ESTATE_MAXC          IEXMXC             40               ***   
       ESTATE_PROP          IEXPRP         OFF         [  0]    ***   
       EVAL_HESS            IRECAL              0            # of cyc.
       EXCITATION           IEXCIT              0               ***   
       EXCITE               IEXCIT         NONE        [  0]    ***   
       EXTERN_POT           IEXPOT         OFF         [  0]    ***   
       FCGRADNEW            IFCGNW         OFF         [  0]    ***   
       FC_FIELD             IFINFC              0             x 10-6  
       FD_CALTYPE           IFDCAL         GRADONLY    [  0]    ***   
       FD_PROJECT           IFDPRJ         OFF         [  1]    ***   
       FD_STEPSIZE          IDISFD              0            10-4 bohr
       FD_USEGROUP          IFDGRP         FULL        [  0]    ***   
       FILE_RECSIZ          IFLREC              4096           words  
       FINITE_PERT          IFIPER              0             x 10-6  
       FIXGEOM              IFIXGM         OFF         [  0]    ***   
       FOCK                 IFOCK          AO          [  1]    ***   
       FREQ_ALGORI          IVIALG         STANDARD    [  0]    ***   
       FROZEN_CORE          IFROCO         OFF         [  0]    ***   
       GAMMA_ABCD           IGABCD         STORE       [  0]    ***   
       GAMMA_ABCI           IGABCI         STORE       [  0]    ***   
       GENBAS_1             IGNBS1              0               ***   
       GENBAS_2             IGNBS2              0               ***   
       GENBAS_3             IGNBS3              0               ***   
       GENBAS_4             IGNBS4              0               ***   
       GEO_CONV             ICONTL              5              H/bohr 
       GEO_MAXCYC           IOPTCY             50               ***   
       GEO_MAXSTEP          IMXSTP            300            millibohr
       GEO_METHOD           INR            SINGLE_POINT[  5]    ***   
       GIAO                 IGIAO          OFF         [  1]    ***   
       GIMIC                IGIMIC         OFF         [  0]    ***   
       GRID                 IGRID          OFF         [  0]    ***   
       GRID_ALGO            IGALGO         SERIAL      [  0]    ***   
       GUESS                IGUESS         MOREAD      [  0]    ***   
       HBAR                 IHBAR          OFF         [  0]    ***   
       HESS_TYPE            IHESTP         SCF         [  0]    ***   
       HF2_FILE             IHF2Fl         USE         [  1]    ***   
       HFSTABILITY          ISTABL         OFF         [  0]    ***   
       INCORE               INCORE         OFF         [  0]    ***   
       INPUT_MRCC           IMRCC          ON          [  1]    ***   
       INTEGRALS            INTTYP         VMOL        [  1]    ***   
       JODA_PRINT           IJPRNT              0               ***   
       KEYWORD_OUT          IDMPKW         NO          [  0]    ***   
       LINDEP_TOL           ILINDP              8               ***   
       LINEQ_CONV           IZTACN          10D-  7           cycles  
       LINEQ_EXPOR          ILMAXD              5               ***   
       LINEQ_MAXCY          ILMAXC            100               ***   
       LINEQ_TYPE           ILTYPE         DIIS        [  1]    ***   
       LOCK_ORBOCC          ILOCOC         OFF         [  0]    ***   
       MEMORY_SIZE          IMEMSZ         100000000           words  
       MEM_UNIT             IMEMU          INTEGERWORDS[  0]    ***   
       MRCC                 IMRCCC         OFF         [  0]    ***   
       MULTIPLICTY          IMULTP              2               ***   
       NACOUPLING           IVCOUP         OFF         [  0]    ***   
       NEGEVAL              IDIE           ABORT       [  0]    ***   
       NEWNORM              INEWNO         OFF         [  0]    ***   
       NON-HF               INONHF         OFF         [  0]    ***   
       NTOP_TAMP            ITOPT2             15               ***   
       NUC_MODEL            INUCMO         POINT       [  0]    ***   
       OCCUPATION           IOCCU   ESTIMATED BY SCF 
       OPEN-SHELL           IOPEN          SPIN-ORBITAL[  0]    ***   
       OPTVIB               IOPTVB         OFF         [  0]    ***   
       ORBITALS             IORBTP         STANDARD    [  0]    ***   
       PARALLEL             IPARAL         ON          [  1]    ***   
       PARA_INT             IPINTS         ON          [  1]    ***   
       PARA_PRINT           IPPRIN              0               ***   
       PERT_ORB             IPTORB         STANDARD    [  0]    ***   
       POINTS               IGRDFD              0               ***   
       PRINT                IPRNT               0               ***   
       PROPS                IPROPS         OFF         [  0]    ***   
       PROP_INTEGR          IINTYP         INTERNAL    [  0]    ***   
       PSI                  IPSI           OFF         [  0]    ***   
       QC_ALG               IQCALG         FLM         [  0]    ***   
       QC_LINALG            IQCLIN         TRIDIAG     [  2]    ***   
       QC_MAXCYC            IQCMAX          10D-100           cycles  
       QC_MAXSCFCY          IQCMSC          10D- 15           cycles  
       QC_RTRUST            IQCRTR          10D-  0           x 10-3  
       QC_SKIPSCF           IQCSKI         OFF         [  0]    ***   
       QC_START             IQCSTA          10D-  1             ***   
       QRHFGUESS            IQGUES         OFF         [  0]    ***   
       QUARTIC              IQUART         OFF         [  0]    ***   
       RAMAN_INT            IRAMIN         OFF         [  0]    ***   
       RAMAN_ORB            IRAMRE         UNRELAXED   [  0]    ***   
       RDO                  IRDOFM         OFF         [  0]    ***   
       REDUCE_REPR          REDREP         Ir          [  0]    ***   
       REFERENCE            IREFNC         UHF         [  1]    ***   
       RELATIVIST           IRELAT         OFF         [  0]    ***   
       RELAX_DENS           IRDENS         OFF         [  0]    ***   
       RESET_FLAGS          IRESET         OFF         [  0]    ***   
       RESTART_CC           ICCRES         OFF         [  0]    ***   
       ROT_EVEC             ROTVEC              0               ***   
       SAVE_INTS            ISVINT         OFF         [  0]    ***   
       SCALE_ON             ISTCRT              0               ***   
       SCF_CONV             ISCFCV          10D-  9             ***   
       SCF_DAMPING          IDAMP               0             x 10-3  
       SCF_EXPORDE          IRPPOR              6               ***   
       SCF_EXPSTAR          IRPPLS              8               ***   
       SCF_EXTRAPO          IRPP           ON          [  1]    ***   
       SCF_MAXCYC           ISCFCY            150              cycles 
       SCF_NOSTOP           ISCFST         OFF         [  0]    ***   
       SCF_PRINT            ISCFPR              0               ***   
       SCF_PROG             ISCFPR         SCF         [  0]    ***   
       SD_FIELD             IFINSD              0             x 10-6  
       SOPERT               IPERSO         OFF         [  0]    ***   
       SPHERICAL            IDFGHI         ON          [  1]    ***   
       SPINORBIT            ISOCAL         OFF         [  0]    ***   
       SPINROTATIO          ISRCON         OFF         [  0]    ***   
       SPIN_FLIP            ISPFLP         OFF         [  0]    ***   
       SPIN_ORBIT           ISPORB         OFF         [  0]    ***   
       SPIN_SCAL            ISCSMP         OFF         [  0]    ***   
       STEEPSCALE           ISTPSC              1000          x 10-3  
       SUBGROUP             ISUBGP         DEFAULT     [  0]    ***   
       SUBGRPAXIS           ISBXYZ         X           [  0]    ***   
       SYMMETRY             ISYM           ON          [  0]    ***   
       SYM_CHECK            ISYMCK         OVERRIDE    [  1]    ***   
       T3_EXTRAPOL          IT3EXT         OFF         [  0]    ***   
       T4_EXTRAPOL          IT4EXP         OFF         [  0]    ***   
       TAMP_SUM             IEVERY              0               ***   
       TESTSUITE            ITESTS         OFF         [  0]    ***   
       THERMOCH             ITHERM         OFF         [  0]    ***   
       TOL_CHOLESK          ITOLCH          10D-  4             ***   
       TRANGRAD             IRESRM         OFF         [  0]    ***   
       TRANS_INV            ITRAIN         USE         [  0]    ***   
       TREAT_PERT           ITREAT         SIMULTANEOUS[  0]    ***   
       TRIP_ALGORI          ITRALG         NORMAL      [  0]    ***   
       UIJ_THRESHO          IUIJTH              1               ***   
       UNITS                IUNITS         ANGSTROM    [  0]    ***   
       UNOS                 IUNOS          OFF         [  0]    ***   
       UPDATE_HESS          IHUPDT         ON          [  1]    ***   
       VIBPHASE             ISETPH         STANDARD    [  0]    ***   
       VIBRATION            IVIB           NO          [  0]    ***   
       VIB_ALGORIT          IGEALG         STANDARD    [  0]    ***   
       VNATORB              IVNORB         OFF         [  0]    ***   
       VTRAN                IVTRAN         FULL/PARTIAL[  0]    ***   
       XFIELD               IXEFLD              0             x 10-6  
       XFORM_TOL            IXFTOL          10D- 11             ***   
       YFIELD               IYEFLD              0             x 10-6  
       ZFIELD               IZEFLD              0             x 10-6  
       ZSCALE_EXP           IZEXPS         OFF         [  0]    ***   
    -------------------------------------------------------------------
  @GETXYZ-I,     4 atoms read from ZMAT.
   Rotational constants (in cm-1): 
          0.5532377061             0.5564759291             0.5597913262
   Rotational constants (in MHz): 
      16585.6515012674         16682.7309988681         16782.1241148580
********************************************************************************
   The full molecular point group is C1  .
   The largest Abelian subgroup of the full molecular point group is C1  .
   The computational point group is C1  .
********************************************************************************


 ----------------------------------------------------------------
         Coordinates used in calculation (QCOMP) 
 ----------------------------------------------------------------
 Z-matrix   Atomic            Coordinates (in bohr)
  Symbol    Number           X              Y              Z
 ----------------------------------------------------------------
     N         7         1.21417130    -0.00000000     1.19291190
     N         7        -1.39027030     0.80233673     0.58212323
     N         7         0.58082277     0.80233673    -1.37739783
     N         7        -0.40472377    -1.60467345    -0.39763730
 ----------------------------------------------------------------

   Interatomic distance matrix (Angstroms) 

                 N             N             N             N    
                [ 1]        [ 2]        [ 3]        [ 4]
  N    [ 1]     0.00000
  N    [ 2]     1.47790     0.00000
  N    [ 3]     1.46376     1.47078     0.00000
  N    [ 4]     1.47085     1.47078     1.47078     0.00000
 rotcon2
   Rotational constants (in cm-1): 
          0.5597913262             0.5564759291             0.5532377061
   Rotational constants (in MHz): 
      16782.1241148580         16682.7309988681         16585.6515012674
  ECPDATA file not present.   Using default ECPDATA. 
  @GTFLGS-I, Calculation type set to UHF.
  There are   56 basis functions.
 @GEOPT-W, Archive file not created for single-point calculation.
 @CHECKOUT-I, Total execution time (CPU/WALL):        0.67/       0.25 seconds.
--executable xjoda finished with status     0 in        0.28 seconds (walltime).
 --invoking executable--
/usr/local/cfour/bin/xvmol
 SERIAL VERSION OF MOLECULE STARTED
********************************************************************************
                    INPUT FROM MOL FILE
********************************************************************************
INTGRL        1    0    1    0    0    0    0    0    0                         
         *** CFOUR Program System (Release V0.1) ***                            
test HF/def2-SVP energy                                                         
    4    0            0.10E-08              0    0                              
   9999.00      3.00                                                            
          7.00000000    1    3    2    2    1                                   
N #1   1.214171296190518  -0.000000000000001   1.192911903543910                
    5    1                                                                      
   1712.8415852999999       -5.3933999999999996E-003                            
   257.64812680000000       -4.0221600000000003E-002                            
   58.458245900000001      -0.17931140000000001                                 
   16.198367900000001      -0.46376319999999999                                 
   5.0052601000000001      -0.44171420000000000                                 
    2    2                                                                      
  0.58731860000000002        1.0000000000000000        0.0000000000000000       
  0.18764590000000000        0.0000000000000000        1.0000000000000000       
    3    1                                                                      
   13.571470200000000       -4.0072400000000001E-002                            
   2.9257373000000002      -0.21807050000000000                                 
  0.79927749999999997      -0.51294470000000003                                 
    1    1                                                                      
  0.21954350000000000        1.0000000000000000                                 
    1    1                                                                      
   1.0000000000000000        1.0000000000000000                                 
          7.00000000    1    3    2    2    1                                   
N #2  -1.390270301014336   0.802336726367101   0.582123227501371                
    5    1                                                                      
   1712.8415852999999       -5.3933999999999996E-003                            
   257.64812680000000       -4.0221600000000003E-002                            
   58.458245900000001      -0.17931140000000001                                 
   16.198367900000001      -0.46376319999999999                                 
   5.0052601000000001      -0.44171420000000000                                 
    2    2                                                                      
  0.58731860000000002        1.0000000000000000        0.0000000000000000       
  0.18764590000000000        0.0000000000000000        1.0000000000000000       
    3    1                                                                      
   13.571470200000000       -4.0072400000000001E-002                            
   2.9257373000000002      -0.21807050000000000                                 
  0.79927749999999997      -0.51294470000000003                                 
    1    1                                                                      
  0.21954350000000000        1.0000000000000000                                 
    1    1                                                                      
   1.0000000000000000        1.0000000000000000                                 
          7.00000000    1    3    2    2    1                                   
N #3   0.580822770220687   0.802336726367032  -1.377397829864006                
    5    1                                                                      
   1712.8415852999999       -5.3933999999999996E-003                            
   257.64812680000000       -4.0221600000000003E-002                            

OMP_NUM_THREADS not specified; defaulting to 1
Running with 1 threads/proc

   58.458245900000001      -0.17931140000000001                                 
   16.198367900000001      -0.46376319999999999                                 
   5.0052601000000001      -0.44171420000000000                                 
    2    2                                                                      
  0.58731860000000002        1.0000000000000000        0.0000000000000000       
  0.18764590000000000        0.0000000000000000        1.0000000000000000       
    3    1                                                                      
   13.571470200000000       -4.0072400000000001E-002                            
   2.9257373000000002      -0.21807050000000000                                 
  0.79927749999999997      -0.51294470000000003                                 
    1    1                                                                      
  0.21954350000000000        1.0000000000000000                                 
    1    1                                                                      
   1.0000000000000000        1.0000000000000000                                 
          7.00000000    1    3    2    2    1                                   
N #4  -0.404723765396868  -1.604673452734132  -0.397637301181275                
    5    1                                                                      
   1712.8415852999999       -5.3933999999999996E-003                            
   257.64812680000000       -4.0221600000000003E-002                            
   58.458245900000001      -0.17931140000000001                                 
   16.198367900000001      -0.46376319999999999                                 
   5.0052601000000001      -0.44171420000000000                                 
    2    2                                                                      
  0.58731860000000002        1.0000000000000000        0.0000000000000000       
  0.18764590000000000        0.0000000000000000        1.0000000000000000       
    3    1                                                                      
   13.571470200000000       -4.0072400000000001E-002                            
   2.9257373000000002      -0.21807050000000000                                 
  0.79927749999999997      -0.51294470000000003                                 
    1    1                                                                      
  0.21954350000000000        1.0000000000000000                                 
    1    1                                                                      
   1.0000000000000000        1.0000000000000000                                 
FINISH                                                                          

********************************************************************************
 ONE- AND TWO-ELECTRON INTEGRALS OVER SYMMETRY-ADAPTED AOS ARE CALCULATED.

  SPHERICAL HARMONICS ARE USED.
  
  INTEGRALS LESS THAN  0.10E-13 ARE NEGLECTED.

   BASIS FUNCTION NOT NORMALIZED: 
   CENTER (AS ORDERED IN MOL FILE):   1
   ANGULAR MOMENTUM TYPE          : S
   OFFSET WITHIN ANGULAR MOMENTUM :  1
   <CHI|CHI>                      :    1.0100840115
   BASIS FUNCTION NOT NORMALIZED: 
   CENTER (AS ORDERED IN MOL FILE):   1
   ANGULAR MOMENTUM TYPE          : P
   OFFSET WITHIN ANGULAR MOMENTUM :  1
   <CHI|CHI>                      :    1.4685447330
   BASIS FUNCTION NOT NORMALIZED: 
   CENTER (AS ORDERED IN MOL FILE):   2
   ANGULAR MOMENTUM TYPE          : S
   OFFSET WITHIN ANGULAR MOMENTUM :  1
   <CHI|CHI>                      :    1.0100840115
   BASIS FUNCTION NOT NORMALIZED: 
   CENTER (AS ORDERED IN MOL FILE):   2
   ANGULAR MOMENTUM TYPE          : P
   OFFSET WITHIN ANGULAR MOMENTUM :  1
   <CHI|CHI>                      :    1.4685447330
   BASIS FUNCTION NOT NORMALIZED: 
   CENTER (AS ORDERED IN MOL FILE):   3
   ANGULAR MOMENTUM TYPE          : S
   OFFSET WITHIN ANGULAR MOMENTUM :  1
   <CHI|CHI>                      :    1.0100840115
   BASIS FUNCTION NOT NORMALIZED: 
   CENTER (AS ORDERED IN MOL FILE):   3
   ANGULAR MOMENTUM TYPE          : P
   OFFSET WITHIN ANGULAR MOMENTUM :  1
   <CHI|CHI>                      :    1.4685447330
   BASIS FUNCTION NOT NORMALIZED: 
   CENTER (AS ORDERED IN MOL FILE):   4
   ANGULAR MOMENTUM TYPE          : S
   OFFSET WITHIN ANGULAR MOMENTUM :  1
   <CHI|CHI>                      :    1.0100840115
   BASIS FUNCTION NOT NORMALIZED: 
   CENTER (AS ORDERED IN MOL FILE):   4
   ANGULAR MOMENTUM TYPE          : P
   OFFSET WITHIN ANGULAR MOMENTUM :  1
   <CHI|CHI>                      :    1.4685447330
  NUCLEAR REPULSION ENERGY :  105.7779183141 A.U.
  @MOLECU-I, ONE ELECTRON INTEGRALS (CPU/WALL):        0.10/       0.01 SECONDS.
  @TWOEL-I,    1220217 INTEGRALS OF SYMMETRY TYPE  I I I I
  @TWOEL-I, TOTAL NUMBER OF 2-E INTEGRALS    1220217.
  @MOLECU-I, TWO ELECTRON INTEGRALS (CPU/WALL):        1.97/       1.54 SECONDS.
 @CHECKOUT-I, Total execution time (CPU/WALL):        2.09/       1.56 seconds.
--executable xvmol finished with status     0 in        1.57 seconds (walltime).
 --invoking executable--
/usr/local/cfour/bin/xvmol2ja
 @GETMEM-I,  Allocated     762 MB of main memory.
 @CHECKOUT-I, Total execution time (CPU/WALL):        0.02/       0.00 seconds.
--executable xvmol2ja finished with status     0 in        0.01 seconds (walltime).
 --invoking executable--
/usr/local/cfour/bin/xvscf
  There are   56 functions in the AO basis.

  There are 1 irreducible representations.

       Irrep        # of functions
         1                 56


  Parameters for SCF calculation: 
        SCF reference function:  UHF  
  Maximum number of iterations:  150
     Full symmetry point group: C1  
     Computational point group: C1  
        Initial density matrix: CORE                   
     SCF convergence tolerance: 10**(- 9)
  DIIS convergence acceleration:  ON
          Latest start for DIIS:   8
                     DIIS order:   6

  Memory information:     205655 words required.
  Fock matrices are constructed from AO integral file.
 @GETMEM-I,  Allocated       1 MB of main memory.
  Initialization and symmetry analysis required      0.007 seconds.

  @INITGES-I, Occupancies from core Hamiltonian:

          Alpha population by irrep:  14
           Beta population by irrep:  13


 total no. of electrons in initial guess :   0.0000000000000000     
 total no. of electrons in initial guess :   0.0000000000000000     
  --------------------------------------------------------------------
  Iteration         Total Energy            Largest Density Difference
  --------------------------------------------------------------------
       0           105.777918314137366              0.0000000000D+00
       1          -200.692570284330429              0.1082405755D+01
       2          -209.130562883480081              0.8357473838D+00
       3          -214.087575742841068              0.7743609911D+00
       4          -214.559244846222043              0.7075142722D+00
       5          -212.218205376747790              0.6787758328D+00
       6          -207.094071947738655              0.1359155815D+01
       7          -200.227483725436343              0.1934448194D+01
       8          -192.142908351827600              0.2385017510D+01
       9          -216.698193360615960              0.2009413245D+01
      10          -216.797894022897083              0.7941528732D-01
      11          -216.808783688515746              0.2466574191D-01
      12          -216.811381144468612              0.1417612091D-01
      13          -216.812752007401173              0.1203489862D-01
      14          -216.813223861571714              0.3977199818D-02
      15          -216.813522806082688              0.3084766732D-02
      16          -216.813692898756130              0.3357465557D-02
      17          -216.813812051149966              0.3547433783D-02
      18          -216.813920342092445              0.4083331056D-02
      19          -216.814014940535685              0.5121933891D-02
      20          -216.814044995628706              0.2323711181D-02
      21          -216.814060703027508              0.1547602312D-02
      22          -216.814068425746484              0.7754878459D-03
      23          -216.814072813453208              0.3970231002D-03
      24          -216.814081276150887              0.9285731916D-03
      25          -216.814090898439929              0.1173632594D-02
      26          -216.814094937633001              0.6568696584D-03
      27          -216.814098928488193              0.9515269963D-03
      28          -216.814100835171303              0.9006246485D-03
      29          -216.814101341035041              0.2374850616D-03
      30          -216.814101996337911              0.4010015789D-03
      31          -216.814102190794301              0.1989302279D-03
      32          -216.814102430763171              0.2214364467D-03
      33          -216.814102526900911              0.1087006461D-03
      34          -216.814102658690786              0.8725405376D-04
      35          -216.814102827739418              0.1416143654D-03
      36          -216.814103049589164              0.1758409571D-03
      37          -216.814103301705870              0.2820098409D-03
      38          -216.814103368914061              0.1045326553D-03
      39          -216.814103458316652              0.1370075209D-03
      40          -216.814103549933236              0.1444565788D-03
      41          -216.814103581030906              0.5962036661D-04
      42          -216.814103627808379              0.1464276067D-03
      43          -216.814103652140830              0.8814268327D-04
      44          -216.814103670072825              0.1102552966D-03
      45          -216.814103686343572              0.4208397456D-04
      46          -216.814103702056116              0.6188010206D-04
      47          -216.814103728258601              0.8372938951D-04
      48          -216.814103738336257              0.4150037101D-04
      49          -216.814103755731253              0.9959729842D-04
      50          -216.814103758776184              0.3010313759D-04
      51          -216.814103761379727              0.3817132565D-04
      52          -216.814103762588843              0.2275419602D-04
      53          -216.814103763088895              0.1478093443D-04
      54          -216.814103763588321              0.2104728017D-04
      55          -216.814103763658011              0.3809702609D-05
      56          -216.814103763722642              0.6362348769D-05
      57          -216.814103763748847              0.1873167641D-05
      58          -216.814103763765615              0.1115340122D-05
      59          -216.814103763785681              0.2023677535D-05
      60          -216.814103763789433              0.9032276242D-06
      61          -216.814103763800063              0.1774208842D-05
      62          -216.814103763811659              0.2770063970D-05
      63          -216.814103763811488              0.4007274195D-06
      64          -216.814103763811943              0.1032919556D-05
      65          -216.814103763813591              0.6537039022D-06
      66          -216.814103763813762              0.5026801088D-06
      67          -216.814103763813534              0.3387939678D-06
      68          -216.814103763814899              0.3323656463D-06
      69          -216.814103763816775              0.1961003574D-06
      70          -216.814103763814899              0.6938560238D-06
      71          -216.814103763816775              0.2298724255D-06
      72          -216.814103763817116              0.1590842022D-06
      73          -216.814103763816945              0.1254228499D-06
      74          -216.814103763815012              0.2280279859D-06
      75          -216.814103763816433              0.1139445195D-06
      76          -216.814103763816831              0.2538830402D-07
      77          -216.814103763816547              0.4129260254D-07
      78          -216.814103763816547              0.4876813619D-07
      79          -216.814103763818707              0.1073159628D-07
      80          -216.814103763815808              0.1767901042D-07
      81          -216.814103763817627              0.7718550479D-08
      82          -216.814103763816377              0.1667602494D-07
      83          -216.814103763815012              0.1111410971D-07
      84          -216.814103763815183              0.6093207119D-08
      85          -216.814103763816831              0.7303252531D-08
      86          -216.814103763817400              0.7153126869D-08
      87          -216.814103763816092              0.4713246007D-08

  SCF has converged.

 Density matrix saved to file den.dat
 total alpha spin electron number:   14.000000000000030     
 total  beta spin electron number:   13.000000000000032     
     E(SCF)=      -216.814103763816377              0.9631127840D-09

  Eigenvector printing suppressed.


       The average multiplicity is    2.0608323
  The expectation value of S**2 is    0.8117574

 @PUTMOS-I, Writing converged MOs to NEWMOS. 
 @PUTMOS-I, Symmetry   1 Full Blocks 14 Partial Blocksize   0
 @PUTFOCK-I, Writing converged Fock matrix to NEWFOCK. 
 @PUTFOCK-I, Symmetry   1 Full Blocks 14 Partial Blocksize   0



  ORBITAL EIGENVALUES (ALPHA)  (1H = 27.2113834 eV)

       MO #        E(hartree)               E(eV)           FULLSYM    COMPSYM
       ----   --------------------   --------------------   -------   ---------
    1     1         -16.1413979416        -439.2297680014       A         A (1)
    2     2         -16.1395878721        -439.1805135046       A         A (1)
    3     3         -16.0945081463        -437.9538318034       A         A (1)
    4     4         -16.0940531764        -437.9414514442       A         A (1)
    5     5          -2.0408971265         -55.5356341898       A         A (1)
    6     6          -1.4387768423         -39.1511082820       A         A (1)
    7     7          -1.3992939989         -38.0767254931       A         A (1)
    8     8          -1.3773675021         -37.4800751827       A         A (1)
    9     9          -1.0571850135         -28.7674667269       A         A (1)
   10    10          -0.9586772886         -26.0869352582       A         A (1)
   11    11          -0.9188951827         -25.0044091212       A         A (1)
   12    12          -0.9122613232         -24.8238926272       A         A (1)
   13    13          -0.8979457676         -24.4343465542       A         A (1)
   14    14          -0.8845491534         -24.0698061490       A         A (1)
  +++++++++++++++++++++++++++++++++++++++++++++++++++++++++++++++++++++++++++++
   15    15          -0.1810238496          -4.9259093749       A         A (1)
   16    16          -0.1450037987          -3.9457539619       A         A (1)
   17    17          -0.1407906855          -3.8311093215       A         A (1)
   18    18          -0.0564091977          -1.5349723059       A         A (1)
   19    19          -0.0512504660          -1.3945960784       A         A (1)
   20    20          -0.0273186757          -0.7433789593       A         A (1)
   21    21           0.4345585060          11.8249381154       A         A (1)
   22    22           0.5379976264          14.6396596801       A         A (1)
   23    23           0.5620087222          15.2930348131       A         A (1)
   24    24           0.5680953842          15.4586613075       A         A (1)
   25    25           0.5951280847          16.1942584839       A         A (1)
   26    26           0.6241955266          16.9852237903       A         A (1)
   27    27           0.6275764014          17.0772220704       A         A (1)
   28    28           0.6321988432          17.2030051065       A         A (1)
   29    29           0.6395320865          17.4025528030       A         A (1)
   30    30           0.7597551742          20.6739893350       A         A (1)
   31    31           0.7795698388          21.2131737699       A         A (1)
   32    32           0.7841146251          21.3368436944       A         A (1)
   33    33           0.7876509739          21.4330726357       A         A (1)
   34    34           0.9215033395          25.0753806743       A         A (1)
   35    35           0.9335585116          25.4034185854       A         A (1)
   36    36           0.9385570523          25.5394357917       A         A (1)
   37    37           1.5137119393          41.1901959365       A         A (1)
   38    38           1.5361614030          41.8010769018       A         A (1)
   39    39           1.5582561894          42.4023066058       A         A (1)
   40    40           1.7575621285          47.8256969285       A         A (1)
   41    41           1.7814800172          48.4765357687       A         A (1)
   42    42           2.0337141108          55.3401743941       A         A (1)
   43    43           2.1959407510          59.7545856982       A         A (1)
   44    44           2.2000166595          59.8654968073       A         A (1)
   45    45           2.2033568497          59.9563880032       A         A (1)
   46    46           2.2946735642          62.4412421332       A         A (1)
   47    47           2.3017807222          62.6346377350       A         A (1)
   48    48           2.3138353201          62.9626600191       A         A (1)
   49    49           2.5517507190          69.4366671562       A         A (1)
   50    50           2.5583299407          69.6156968790       A         A (1)
   51    51           2.9830595565          81.1731772967       A         A (1)
   52    52           2.9976432216          81.5700190005       A         A (1)
   53    53           3.0206504347          82.1960770962       A         A (1)
   54    54           3.1803592386          86.5419745906       A         A (1)
   55    55           3.2077380330          87.2869894639       A         A (1)
   56    56           3.2205579740          87.6358377932       A         A (1)



  ORBITAL EIGENVALUES ( BETA)  (1H = 27.2113834 eV)

       MO #        E(hartree)               E(eV)           FULLSYM    COMPSYM
       ----   --------------------   --------------------   -------   ---------
    1     1         -16.1185906433        -438.6091498625       A         A (1)
    2     2         -16.1178113129        -438.5879432047       A         A (1)
    3     3         -16.0985757785        -438.0645177027       A         A (1)
    4     4         -16.0980042370        -438.0489652670       A         A (1)
    5     5          -2.0103316445         -54.7039051389       A         A (1)
    6     6          -1.3803454740         -37.5611099185       A         A (1)
    7     7          -1.3528440858         -36.8127591003       A         A (1)
    8     8          -1.3213482447         -35.9557136903       A         A (1)
    9     9          -0.9967135181         -27.1219536797       A         A (1)
   10    10          -0.9120086737         -24.8170176846       A         A (1)
   11    11          -0.8871845430         -24.1415187454       A         A (1)
   12    12          -0.8852151023         -24.0879275399       A         A (1)
   13    13          -0.8812448818         -23.9798923472       A         A (1)
  +++++++++++++++++++++++++++++++++++++++++++++++++++++++++++++++++++++++++++++
   14    14          -0.4366580868         -11.8820706151       A         A (1)
   15    15          -0.1425831164          -3.8798838473       A         A (1)
   16    16          -0.1256617674          -3.4194305308       A         A (1)
   17    17          -0.0774593758          -2.1077767727       A         A (1)
   18    18          -0.0317495718          -0.8639497702       A         A (1)
   19    19          -0.0225965933          -0.6148845637       A         A (1)
   20    20          -0.0013472439          -0.0366603716       A         A (1)
   21    21           0.4563826744          12.4188039307       A         A (1)
   22    22           0.5735712157          15.6076662583       A         A (1)
   23    23           0.5782153197          15.7340387523       A         A (1)
   24    24           0.5891588627          16.0318276958       A         A (1)
   25    25           0.6279261388          17.0867389088       A         A (1)
   26    26           0.6293202379          17.1246742762       A         A (1)
   27    27           0.6365081963          17.3202685658       A         A (1)
   28    28           0.6392414413          17.3946439431       A         A (1)
   29    29           0.6626181710          18.0307570978       A         A (1)
   30    30           0.7801974810          21.2302527830       A         A (1)
   31    31           0.7882437717          21.4492034849       A         A (1)
   32    32           0.7946109314          21.6224627087       A         A (1)
   33    33           0.8016173180          21.8131161794       A         A (1)
   34    34           0.9360046396          25.4699811125       A         A (1)
   35    35           0.9390990074          25.5541831406       A         A (1)
   36    36           0.9460495062          25.7433158298       A         A (1)
   37    37           1.5557548324          42.3342412219       A         A (1)
   38    38           1.5630664257          42.5331997904       A         A (1)
   39    39           1.5685713243          42.6829956966       A         A (1)
   40    40           1.7880613947          48.6556241527       A         A (1)
   41    41           1.8078635292          49.1944676287       A         A (1)
   42    42           2.0490840018          55.7584103910       A         A (1)
   43    43           2.2172089109          60.3333217526       A         A (1)
   44    44           2.2208388208          60.4320966217       A         A (1)
   45    45           2.2255931041          60.5614672479       A         A (1)
   46    46           2.3191655770          63.1077036844       A         A (1)
   47    47           2.3249399449          63.2648322234       A         A (1)
   48    48           2.3301430305          63.4064153797       A         A (1)
   49    49           2.5679578755          69.8776863066       A         A (1)
   50    50           2.5777709066          70.1447124557       A         A (1)
   51    51           3.0125370795          81.9753014778       A         A (1)
   52    52           3.0138764880          82.0117486342       A         A (1)
   53    53           3.0197723242          82.1721824942       A         A (1)
   54    54           3.2116027834          87.3921546674       A         A (1)
   55    55           3.2201948621          87.6259570143       A         A (1)
   56    56           3.2252468134          87.7634275989       A         A (1)


  VSCF finished.

 @CHECKOUT-I, Total execution time (CPU/WALL):        2.18/       1.68 seconds.
--executable xvscf finished with status     0 in        1.68 seconds (walltime).
  The final electronic energy is      -216.814103763816377 a.u. 
  This computation required                            3.55 seconds (walltime).
