[Molden Format]                                                                 
[ATOMS] AU                                                                      
C        1    6        0.0000000000        0.0000000000        0.0000000000     
H        2    1        1.6813033065        0.0000000000        1.1888609692     
H        3    1       -1.6813033065        0.0000000000        1.1888609692     
H        4    1        0.0000000000       -1.6813033065       -1.1888609692     
H        5    1        0.0000000000        1.6813033065       -1.1888609692     
[Molden Format]                                                                 
[GTO]                                                                           
  1 0
g   3 1.00
   60.043438279533717       0.11407461847341316                                 
   22.167505485221010       0.10668188273112433                                 
   4.8023959698887424        15.216852924688135                                 
g   1 1.00
   1.4833907695011570        1.0000000000000000                                 
g   1 1.00
  0.46178952710355969        1.0000000000000000                                 
g   1 1.00
  0.30249228070031442        1.0000000000000000                                 
g   1 1.00
   9.0284122197480249E-002   1.0000000000000000                                 

  2 0
g   3 1.00
   10.178704699742342        5.9884370424923472E-004                            
   2.3952640718028237       -9.8094243397848932E-002                            
   1.0486496863195751       0.94847150361269594                                 
g   1 1.00
  0.72018956988162897        1.0000000000000000                                 
g   1 1.00
  0.33281514997841094        1.0000000000000000                                 
g   1 1.00
  0.12166473257337672        1.0000000000000000                                 

  3 0
g   3 1.00
   10.178704699742342        5.9884370424923472E-004                            
   2.3952640718028237       -9.8094243397848932E-002                            
   1.0486496863195751       0.94847150361269594                                 
g   1 1.00
  0.72018956988162897        1.0000000000000000                                 
g   1 1.00
  0.33281514997841094        1.0000000000000000                                 
g   1 1.00
  0.12166473257337672        1.0000000000000000                                 

  4 0
g   3 1.00
   10.178704699742342        5.9884370424923472E-004                            
   2.3952640718028237       -9.8094243397848932E-002                            
   1.0486496863195751       0.94847150361269594                                 
g   1 1.00
  0.72018956988162897        1.0000000000000000                                 
g   1 1.00
  0.33281514997841094        1.0000000000000000                                 
g   1 1.00
  0.12166473257337672        1.0000000000000000                                 

  5 0
g   3 1.00
   10.178704699742342        5.9884370424923472E-004                            
   2.3952640718028237       -9.8094243397848932E-002                            
   1.0486496863195751       0.94847150361269594                                 
g   1 1.00
  0.72018956988162897        1.0000000000000000                                 
g   1 1.00
  0.33281514997841094        1.0000000000000000                                 
g   1 1.00
  0.12166473257337672        1.0000000000000000                                 

                                                                                
[MO]
 Sym= A
 Ene=  -1.7993512915464365     
 Spin= Alpha
 Occup= 1.0
  1       -0.0000396870
  2       -0.0000000000
  3       -0.0000000000
  4        0.0007036682
  5        0.0000075649
  6       -0.0004655460
  7       -0.0000000000
  8        0.0000000000
  9        0.0000000000
 10        0.0000000000
 11       -0.0000384983
 12       -0.0000042027
 13       -0.0004726783
 14        0.0000016811
 15        0.0001563707
 16        0.0004749102
 17        0.0000000000
 18       -0.0000000000
 19       -0.0086602808
 20        0.0000791228
 21        0.0058108193
 22        0.0000000000
 23        0.0000000000
 24       -0.0000000000
 25        0.0000000000
 26        0.0004873432
 27       -0.0000439571
 28        0.0057362217
 29        0.0000175828
 30       -0.0019245068
 31       -0.0123701651
 32       -0.0000000000
 33        0.0000000001
 34        0.2253126993
 35       -0.0018736405
 36       -0.1510917088
 37       -0.0000000000
 38       -0.0000000002
 39        0.0000000000
 40       -0.0000000000
 41       -0.0126645793
 42        0.0010409114
 43       -0.1493252236
 44       -0.0004163646
 45        0.0500694887
 46        0.0165715207
 47        0.0000000000
 48       -0.0000000002
 49       -0.3026044837
 50        0.0030526580
 51        0.2031753593
 52        0.0000000000
 53        0.0000000003
 54       -0.0000000000
 55        0.0000000001
 56        0.0170511997
 57       -0.0016959211
 58        0.2002972857
 59        0.0006783684
 60       -0.0672454408
 61       -0.0159671832
 62        0.0000000000
 63        0.0000000001
 64        0.2902698836
 65       -0.0020227393
 66       -0.1944667842
 67        0.0000000000
 68       -0.0000000002
 69       -0.0000000001
 70       -0.0000000000
 71       -0.0162850261
 72        0.0011237441
 73       -0.1925597273
 74       -0.0004494976
 75        0.0645044186
 76        0.0092416201
 77        0.0000774044
 78       -0.0723239336
 79        0.0178958758
 80        0.0000035086
 81       -0.0733455964
 82       -0.0000415233
 83        0.1300821671
 84       -0.0001076433
 85        0.0289632113
 86       -0.0112180904
 87        0.0000541138
 88        0.0494126665
 89       -0.0000552833
 90        0.0039888216
 91       -0.0160452371
 92        0.0000352464
 93        0.1286635567
 94       -0.0396418422
 95        0.0005394208
 96        0.1359132648
 97       -0.0001057861
 98       -0.2317140720
 99        0.0002116192
100       -0.0514255327
101        0.0204263730
102       -0.0002331949
103       -0.0829163957
104        0.0000533879
105       -0.0088328115
106       -0.0023706558
107       -0.0002712168
108        0.0206700026
109       -0.0099343098
110       -0.0005888340
111        0.0241582444
112        0.0000271856
113       -0.0369528018
114        0.0007320934
115       -0.0083524020
116        0.0033931242
117        0.0001864618
118       -0.0104244356
119        0.0000098162
120       -0.0022889681
121        0.0074522554
122        0.0001829402
123        0.0124436647
124       -0.1673083213
125        0.0011597316
126        0.1225947889
127       -0.0001684886
128       -0.0226967938
129       -0.0000433547
130       -0.0048780668
131        0.0111423753
132       -0.0004786302
133        0.1004540698
134        0.0000920530
135       -0.0371748098
136        0.0092416201
137       -0.0000774044
138        0.0723239337
139        0.0178958758
140        0.0000035087
141       -0.0733455965
142        0.0000415233
143       -0.1300821672
144        0.0001076432
145       -0.0289632113
146       -0.0112180904
147        0.0000541138
148        0.0494126666
149       -0.0000552833
150        0.0039888216
151       -0.0160452371
152       -0.0000352464
153       -0.1286635568
154       -0.0396418423
155        0.0005394208
156        0.1359132650
157        0.0001057861
158        0.2317140723
159       -0.0002116192
160        0.0514255327
161        0.0204263730
162       -0.0002331949
163       -0.0829163958
164        0.0000533879
165       -0.0088328115
166       -0.0023706557
167        0.0002712168
168       -0.0206700026
169       -0.0099343099
170       -0.0005888340
171        0.0241582444
172       -0.0000271856
173        0.0369528018
174       -0.0007320934
175        0.0083524020
176        0.0033931243
177        0.0001864618
178       -0.0104244356
179        0.0000098162
180       -0.0022889681
181        0.0074522554
182       -0.0001829402
183       -0.0124436649
184       -0.1673083213
185        0.0011597316
186        0.1225947889
187        0.0001684887
188        0.0226967940
189        0.0000433546
190        0.0048780669
191        0.0111423753
192       -0.0004786302
193        0.1004540698
194        0.0000920530
195       -0.0371748098
196       -0.0111004973
197        0.0000000000
198        0.0000000000
199        0.0176781451
200        0.1287859285
201        0.0489248388
202       -0.0000000000
203       -0.0000000000
204       -0.0000000000
205       -0.0000000000
206        0.0091362590
207       -0.0715477381
208       -0.0724956990
209        0.0286190952
210        0.0039284767
211        0.0201497087
212       -0.0000000000
213       -0.0000000000
214       -0.0390001283
215       -0.2288866664
216       -0.0818981237
217        0.0000000000
218        0.0000000001
219       -0.0000000000
220        0.0000000000
221       -0.0158163611
222        0.1271592591
223        0.1338982948
224       -0.0508637036
225       -0.0086666952
226        0.0034432477
227       -0.0000000000
228        0.0000000000
229       -0.0096911841
230       -0.0369726861
231       -0.0109683020
232       -0.0000000000
233       -0.0000000001
234        0.0000000001
235       -0.0000000000
236       -0.0023664494
237        0.0205403812
238        0.0238898808
239       -0.0082161525
240       -0.0021535965
241        0.0109686915
242       -0.0000000000
243       -0.0000000000
244       -0.1672168459
245       -0.0213684853
246        0.1014046967
247        0.0000000000
248        0.0000000001
249       -0.0000000000
250        0.0000000000
251        0.0076109580
252        0.0118713807
253        0.1215510978
254       -0.0047485523
255       -0.0371592991
256       -0.0112311568
257        0.0000000000
258       -0.0000000000
259        0.0179766082
260       -0.1303309421
261        0.0494103324
262       -0.0000000000
263        0.0000000000
264       -0.0000000000
265       -0.0000000000
266        0.0092098351
267        0.0722939529
268       -0.0732356190
269       -0.0288503055
270        0.0039708811
271        0.0203974512
272       -0.0000000000
273        0.0000000000
274       -0.0398005566
275        0.2319543179
276       -0.0825841508
277       -0.0000000000
278       -0.0000000000
279        0.0000000000
280       -0.0000000000
281       -0.0159281407
282       -0.1289964766
283        0.1353694007
284        0.0516783707
285       -0.0087975417
286        0.0036133032
287        0.0000000000
288        0.0000000000
289       -0.0104833799
290        0.0369969749
291       -0.0111964392
292        0.0000000000
293       -0.0000000000
294       -0.0000000001
295        0.0000000000
296       -0.0022857958
297       -0.0202725384
298        0.0241981545
299        0.0079402135
300       -0.0021669526
301        0.0109803945
302        0.0000000000
303       -0.0000000001
304       -0.1672758054
305        0.0231110323
306        0.1013934381
307       -0.0000000000
308        0.0000000001
309       -0.0000000000
310        0.0000000000
311        0.0075961717
312       -0.0131707927
313        0.1216987752
314        0.0054671152
315       -0.0371820356
 Sym= A
 Ene= -0.47137753565762869     
 Spin= Alpha
 Occup= 1.0
  1       -0.0000903199
  2        0.0000049328
  3       -0.0006218095
  4        0.0000035939
  5       -0.0005738847
  6        0.0005383255
  7       -0.0000017937
  8        0.0011135495
  9       -0.0000094171
 10        0.0002506263
 11        0.0000883233
 12        0.0003139844
 13       -0.0005335337
 14       -0.0001226894
 15       -0.0000007986
 16        0.0006622414
 17       -0.0000839530
 18        0.0045639708
 19       -0.0000321753
 20        0.0042707798
 21       -0.0039412732
 22        0.0000558498
 23       -0.0080965208
 24        0.0000843094
 25       -0.0018651305
 26       -0.0006443663
 27       -0.0022720512
 28        0.0038983728
 29        0.0008484579
 30        0.0000071501
 31       -0.0118073266
 32        0.0008662797
 33       -0.0816359865
 34        0.0003403470
 35       -0.0757016713
 36        0.0705036126
 37       -0.0005690077
 38        0.1457268943
 39       -0.0008918162
 40        0.0330603551
 41        0.0116182449
 42        0.0410236292
 43       -0.0700498164
 44       -0.0157897388
 45       -0.0000756327
 46        0.0228812560
 47       -0.0008180236
 48        0.1572272770
 49       -0.0009808222
 50        0.1445124963
 51       -0.1363067140
 52       -0.0000386637
 53       -0.2823477901
 54        0.0025700619
 55       -0.0631113470
 56       -0.0223363548
 57       -0.0797238808
 58        0.1349989509
 59        0.0315530487
 60        0.0002179605
 61       -0.0342582942
 62        0.0007332489
 63       -0.2371668662
 64        0.0005393974
 65       -0.2178707306
 66        0.2050103680
 67       -0.0002621188
 68        0.4260557617
 69       -0.0014133903
 70        0.0951482789
 71        0.0339586290
 72        0.1203230129
 73       -0.2042911716
 74       -0.0476994361
 75       -0.0001198661
 76       -0.0012386290
 77        0.0007248043
 78       -0.0111894988
 79        0.0008420488
 80       -0.0065888138
 81        0.0065897250
 82        0.0005789023
 83        0.0206996242
 84       -0.0039111198
 85        0.0042896240
 86       -0.0005073280
 87        0.0034912633
 88        0.0022019193
 89       -0.0012949920
 90       -0.0014652741
 91        0.0044622142
 92       -0.0000532942
 93        0.0191046205
 94        0.0027319042
 95        0.0184932791
 96       -0.0295051894
 97       -0.0028824750
 98       -0.0246591909
 99        0.0088073074
100       -0.0108848902
101       -0.0009811014
102       -0.0085252575
103        0.0031547040
104        0.0023608311
105        0.0043917476
106        0.0138263136
107        0.0128065581
108        0.0389118559
109       -0.0617569356
110        0.0312770975
111       -0.0212009463
112       -0.0249145238
113        0.0517692742
114        0.0363238972
115       -0.0561682806
116        0.0090008842
117       -0.0020470893
118        0.0077516303
119       -0.0083786099
120        0.0022415527
121        0.0268500772
122        0.0018663614
123        0.1570595460
124       -0.0325672151
125        0.1406715421
126       -0.1285332482
127       -0.0095795596
128       -0.2386473330
129        0.0231395945
130       -0.0775104350
131       -0.0133860221
132       -0.0705212589
133        0.1128833480
134        0.0236307448
135        0.0026083167
136       -0.0034508557
137       -0.0008774201
138       -0.0203433646
139        0.0089660827
140       -0.0058217387
141        0.0117390513
142       -0.0002521648
143        0.0370064044
144        0.0033887545
145        0.0080078965
146        0.0023962250
147        0.0034794545
148       -0.0233434326
149       -0.0015388750
150        0.0019340635
151        0.0041715377
152        0.0001951714
153        0.0150269772
154       -0.0347605787
155        0.0177268156
156        0.0097313523
157        0.0025051918
158       -0.0276163083
159       -0.0081010897
160       -0.0058215411
161       -0.0002167022
162       -0.0086727696
163        0.0360607920
164        0.0027638310
165       -0.0076320241
166       -0.0028136553
167       -0.0125196862
168        0.0099661904
169        0.0789974611
170        0.0326409034
171       -0.0621155293
172        0.0245333508
173       -0.0185545726
174       -0.0360409940
175       -0.0037813328
176       -0.0058000843
177       -0.0011780370
178       -0.0441969553
179       -0.0097022642
180        0.0177187474
181        0.0209311276
182       -0.0030344340
183        0.1561183015
184        0.0313128954
185        0.1382224507
186       -0.1568996611
187        0.0098879780
188       -0.2812541098
189       -0.0205606319
190       -0.0623669316
191       -0.0241072214
192       -0.0702330098
193        0.1133304330
194        0.0241588595
195        0.0072615380
196       -0.0001296542
197       -0.0012912597
198       -0.0071667161
199       -0.0032250226
200       -0.0067159140
201        0.0040029479
202       -0.0015255972
203        0.0127012470
204        0.0084505707
205        0.0029329671
206        0.0019213334
207        0.0035624304
208       -0.0083029778
209       -0.0013237924
210        0.0007166717
211        0.0006474607
212        0.0058700516
213        0.0173798223
214        0.0071753050
215        0.0123739837
216       -0.0110600694
217        0.0003971315
218       -0.0359276067
219       -0.0188015494
220       -0.0054039534
221       -0.0046337412
222       -0.0108128329
223        0.0206271420
224        0.0066881717
225       -0.0015945121
226       -0.0052880970
227        0.0465243508
228        0.0014708924
229        0.0262238673
230       -0.0440816693
231        0.0055047150
232       -0.0236194305
233       -0.0621665783
234       -0.0687147611
235        0.0192513004
236       -0.0092807185
237       -0.0259867286
238        0.0294604437
239        0.0406806184
240       -0.0058275264
241        0.0161497980
242        0.0189695111
243        0.1387012402
244        0.0159258856
245        0.1114770445
246       -0.1128246736
247       -0.0050592387
248       -0.2700513029
249       -0.0417308174
250       -0.0486841392
251       -0.0249975124
252       -0.0792231498
253        0.1340591888
254        0.0420641349
255       -0.0035390859
256       -0.0017144910
257        0.0011797915
258       -0.0069967358
259       -0.0067716502
260       -0.0224923266
261        0.0170585962
262        0.0012982645
263        0.0121545223
264       -0.0074341679
265        0.0029452284
266        0.0028281447
267        0.0128499755
268       -0.0101972179
269       -0.0053525333
270       -0.0011435631
271        0.0004695746
272       -0.0058311811
273        0.0170717720
274        0.0252837503
275        0.0142320335
276       -0.0281011976
277        0.0001753150
278       -0.0352344074
279        0.0169675981
280       -0.0053269695
281       -0.0041583430
282       -0.0068821617
283       -0.0003336922
284        0.0021381505
285        0.0047391483
286        0.0021580086
287       -0.0467195195
288        0.0021473610
289       -0.0445393077
290        0.0275192762
291        0.0315912559
292        0.0229700288
293       -0.0664937473
294        0.0712484721
295        0.0200172214
296       -0.0012054764
297        0.0020955753
298        0.0517721660
299       -0.0112686674
300       -0.0138939036
301        0.0216483677
302       -0.0208505890
303        0.1397780410
304       -0.0166095939
305        0.1543933352
306       -0.1132806125
307        0.0061072239
308       -0.2712918497
309        0.0442300956
310       -0.0493474245
311       -0.0220119325
312       -0.0794991507
313        0.1486811889
314        0.0280347057
315       -0.0059000961
 Sym= A
 Ene= -0.47137753448157399     
 Spin= Alpha
 Occup= 1.0
  1        0.0001024796
  2        0.0000043475
  3       -0.0005480289
  4       -0.0000040777
  5        0.0006511463
  6       -0.0006107998
  7       -0.0000015809
  8        0.0009814216
  9       -0.0000082998
 10        0.0002208883
 11       -0.0001002142
 12       -0.0003562558
 13        0.0006053628
 14        0.0001392070
 15        0.0000009062
 16       -0.0007513984
 17       -0.0000739915
 18        0.0040224340
 19        0.0000365070
 20       -0.0048457513
 21        0.0044718833
 22        0.0000492230
 23       -0.0071358302
 24        0.0000743057
 25       -0.0016438240
 26        0.0007311167
 27        0.0025779355
 28       -0.0044232072
 29       -0.0009626851
 30       -0.0000081127
 31        0.0133969363
 32        0.0007634914
 33       -0.0719494902
 34       -0.0003861679
 35        0.0858933232
 36       -0.0799954502
 37       -0.0005014921
 38        0.1284357079
 39       -0.0007859981
 40        0.0291375875
 41       -0.0131823987
 42       -0.0465466057
 43        0.0794805599
 44        0.0179154980
 45        0.0000858151
 46       -0.0259617389
 47       -0.0007209611
 48        0.1385715161
 49        0.0011128697
 50       -0.1639680911
 51        0.1546575639
 52       -0.0000340763
 53       -0.2488458875
 54        0.0022651122
 55       -0.0556228869
 56        0.0253434780
 57        0.0904570394
 58       -0.1531737378
 59       -0.0358010090
 60       -0.0002473043
 61        0.0388704575
 62        0.0006462455
 63       -0.2090258947
 64       -0.0006120160
 65        0.2472024832
 66       -0.2326107291
 67       -0.0002310171
 68        0.3755022284
 69       -0.0012456850
 70        0.0838584852
 71       -0.0385304486
 72       -0.1365219986
 73        0.2317947077
 74        0.0541211709
 75        0.0001360036
 76        0.0036352806
 77       -0.0009762188
 78       -0.0190887912
 79       -0.0091443351
 80        0.0067026583
 81       -0.0126673487
 82       -0.0003274922
 83        0.0346805413
 84        0.0039111330
 85        0.0075286108
 86       -0.0023511151
 87       -0.0039493860
 88        0.0232510255
 89        0.0017151666
 90       -0.0017639461
 91       -0.0047699600
 92        0.0002034795
 93        0.0127275546
 94        0.0346922442
 95       -0.0202104281
 96       -0.0060724845
 97        0.0028902436
 98       -0.0247139976
 99       -0.0092811692
100       -0.0044895554
101        0.0003426816
102        0.0098216959
103       -0.0367483339
104       -0.0030848866
105        0.0071368031
106        0.0010851376
107       -0.0142415309
108        0.0051179202
109       -0.0718074116
110       -0.0368626055
111        0.0652965857
112        0.0278845275
113       -0.0252589316
114       -0.0409289898
115        0.0033017236
116        0.0047065214
117        0.0014466936
118        0.0435682830
119        0.0108408416
120       -0.0181441448
121       -0.0244986536
122       -0.0032950303
123        0.1374749248
124       -0.0274386228
125       -0.1571413802
126        0.1744305443
127        0.0111801295
128       -0.2532777817
129       -0.0236552976
130       -0.0530489976
131        0.0259950016
132        0.0797249249
133       -0.1285313870
134       -0.0273444649
135       -0.0076498595
136        0.0016855451
137        0.0008417116
138       -0.0087025487
139       -0.0019842563
140        0.0073787163
141       -0.0081290144
142        0.0006154607
143        0.0161783939
144       -0.0043715171
145        0.0033097507
146        0.0002079176
147       -0.0039597936
148        0.0007367506
149        0.0015002215
150        0.0012320440
151       -0.0050261463
152       -0.0000784367
153        0.0173541675
154        0.0016484219
155       -0.0208859472
156        0.0285084559
157       -0.0032227602
158       -0.0213587661
159        0.0099035908
160       -0.0102345788
161        0.0010163812
162        0.0096916869
163       -0.0077467090
164       -0.0027297045
165       -0.0034602911
166       -0.0135804202
167        0.0144943640
168        0.0379605145
169        0.0522458095
170       -0.0356606218
171        0.0292367117
172       -0.0282204726
173        0.0545325517
174        0.0411783256
175       -0.0561380317
176       -0.0083382421
177        0.0022126288
178       -0.0022163570
179        0.0096742452
180       -0.0045033924
181       -0.0297152918
182        0.0022655551
183        0.1385428883
184        0.0288618102
185       -0.1592998753
186        0.1494299407
187       -0.0109083064
188       -0.2049348933
189        0.0259282539
190       -0.0702312572
191        0.0165459235
192        0.0799789721
193       -0.1281373512
194       -0.0268790137
195       -0.0035487649
196        0.0001471094
197       -0.0011380456
198       -0.0063163513
199        0.0036592045
200        0.0076200724
201       -0.0045418608
202       -0.0013445779
203        0.0111941839
204        0.0074478706
205        0.0025849567
206       -0.0021800008
207       -0.0040420377
208        0.0094208002
209        0.0015020136
210       -0.0008131566
211       -0.0007346277
212        0.0051735422
213        0.0153176241
214       -0.0081413096
215       -0.0140398830
216        0.0125490761
217        0.0003500101
218       -0.0316646262
219       -0.0165706567
220       -0.0047627487
221        0.0052575776
222        0.0122685555
223       -0.0234041560
224       -0.0075885945
225        0.0018091800
226        0.0060000289
227        0.0410040162
228        0.0012963639
229       -0.0297543647
230        0.0500163457
231       -0.0062458089
232       -0.0208168732
233       -0.0547902194
234       -0.0605614291
235        0.0169670425
236        0.0105301735
237        0.0294852989
238       -0.0334266760
239       -0.0461574141
240        0.0066120808
241       -0.0183240306
242        0.0167186888
243        0.1222436815
244       -0.0180699742
245       -0.1264851063
246        0.1280141577
247       -0.0044589361
248       -0.2380084369
249       -0.0367792582
250       -0.0429075358
251        0.0283629050
252        0.0898888955
253       -0.1521074559
254       -0.0477271934
255        0.0040155497
256        0.0019453114
257        0.0010398037
258       -0.0061665400
259        0.0076833116
260        0.0255204490
261       -0.0193551800
262        0.0011442192
263        0.0107123308
264       -0.0065520688
265        0.0025957631
266       -0.0032088953
267       -0.0145799566
268        0.0115700602
269        0.0060731402
270        0.0012975200
271       -0.0005327929
272       -0.0051392839
273        0.0150461255
274       -0.0286876796
275       -0.0161480798
276        0.0318844370
277        0.0001545131
278       -0.0310536782
279        0.0149543125
280       -0.0046948994
281        0.0047181770
282        0.0078087013
283        0.0003786174
284       -0.0024260080
285       -0.0053771757
286       -0.0024485396
287       -0.0411760271
288        0.0018925664
289        0.0505355968
290       -0.0312241713
291       -0.0358443590
292        0.0202445261
293       -0.0586039492
294        0.0627945032
295        0.0176420833
296        0.0013677683
297       -0.0023777001
298       -0.0587422063
299        0.0127857572
300        0.0157644276
301       -0.0245628681
302       -0.0183765680
303        0.1231927147
304        0.0188457296
305       -0.1751791782
306        0.1285314790
307        0.0053825728
308       -0.2391017873
309        0.0389819857
310       -0.0434921190
311        0.0249753790
312        0.0902020542
313       -0.1686980035
314       -0.0318089948
315        0.0066944207
 Sym= A
 Ene= -0.45829784163297838     
 Spin= Alpha
 Occup= 1.0
  1       -0.0000934493
  2       -0.0000000000
  3        0.0000000000
  4       -0.0000101184
  5        0.0011965706
  6        0.0005708144
  7        0.0000000000
  8       -0.0000000000
  9       -0.0000000000
 10       -0.0000000000
 11        0.0000945736
 12       -0.0006647614
 13       -0.0005573232
 14        0.0002659046
 15       -0.0000022485
 16        0.0006684570
 17        0.0000000000
 18       -0.0000000001
 19        0.0001073571
 20       -0.0085839819
 21       -0.0041180993
 22       -0.0000000000
 23        0.0000000001
 24        0.0000000000
 25        0.0000000000
 26       -0.0006803856
 27        0.0047688788
 28        0.0039749564
 29       -0.0019075515
 30        0.0000238571
 31       -0.0122737884
 32       -0.0000000001
 33        0.0000000013
 34       -0.0011508733
 35        0.1570336131
 36        0.0747936037
 37        0.0000000001
 38       -0.0000000021
 39       -0.0000000001
 40       -0.0000000006
 41        0.0124016632
 42       -0.0872408961
 43       -0.0732591059
 44        0.0348963584
 45       -0.0002557496
 46        0.0240944762
 47        0.0000000000
 48       -0.0000000026
 49        0.0013812713
 50       -0.3076493230
 51       -0.1459481286
 52       -0.0000000001
 53        0.0000000045
 54        0.0000000002
 55        0.0000000011
 56       -0.0242479508
 57        0.1709162905
 58        0.1441064335
 59       -0.0683665162
 60        0.0003069492
 61       -0.0366020164
 62       -0.0000000001
 63        0.0000000037
 64       -0.0003510708
 65        0.4661158585
 66        0.2199631691
 67        0.0000000001
 68       -0.0000000066
 69       -0.0000000001
 70       -0.0000000015
 71        0.0366410243
 72       -0.2589532547
 73       -0.2194950748
 74        0.1035813019
 75       -0.0000780157
 76       -0.0027170690
 77       -0.0019288133
 78        0.0044460835
 79        0.0062848443
 80        0.0146517996
 81        0.0100175699
 82       -0.0015624669
 83       -0.0076920952
 84        0.0104738406
 85       -0.0018820518
 86        0.0008549930
 87       -0.0083125859
 88       -0.0114148021
 89        0.0034286527
 90        0.0002328720
 91        0.0050741217
 92        0.0008661076
 93        0.0032182904
 94       -0.0195210643
 95       -0.0412455749
 96       -0.0109236661
 97        0.0069693896
 98       -0.0006141162
 99       -0.0235064917
100       -0.0030135850
101       -0.0002932822
102        0.0200370935
103        0.0212807578
104       -0.0062885686
105       -0.0017261820
106        0.0053934349
107       -0.0272677688
108        0.0144759702
109        0.0110297304
110       -0.0681401382
111       -0.0433903397
112        0.0513260349
113        0.0406323059
114       -0.0721747982
115       -0.0280200722
116        0.0014004614
117        0.0008061581
118       -0.0194324989
119        0.0219072213
120        0.0104704731
121        0.0252342198
122       -0.0056529012
123        0.0008606232
124        0.0009195411
125       -0.2965143465
126       -0.1523248596
127        0.0209800954
128        0.0210497250
129       -0.0459815826
130       -0.0078771982
131       -0.0202273263
132        0.1521752773
133        0.1204444168
134       -0.0533371618
135        0.0053134071
136       -0.0027170690
137        0.0019288132
138       -0.0044460830
139        0.0062848442
140        0.0146517995
141        0.0100175699
142        0.0015624669
143        0.0076920943
144       -0.0104738405