 --invoking executable--
/usr/local/cfour/bin/xjoda


   *************************************************************************
         <<<     CCCCCC     CCCCCC   |||     CCCCCC     CCCCCC   >>>
       <<<      CCC        CCC       |||    CCC        CCC         >>>
      <<<      CCC        CCC        |||   CCC        CCC            >>>
    <<<        CCC        CCC        |||   CCC        CCC              >>>
      <<<      CCC        CCC        |||   CCC        CCC            >>>
       <<<      CCC        CCC       |||    CCC        CCC         >>>
         <<<     CCCCCC     CCCCCC   |||     CCCCCC     CCCCCC   >>>
   *************************************************************************

     ****************************************************************
     * CFOUR Coupled-Cluster techniques for Computational Chemistry *
     ****************************************************************


   Department of Chemistry                Institut fuer Physikalische Chemie
   University of Texas at Austin          Universitaet Mainz
   Austin, TX  78712, USA                 D-55099 Mainz, Germany

                       Version 2.00beta

                     kbob-G41MT-S2                                     
                     Вт. мая  5 23:45:13 KRAT 2015                
                     integer*8 version is running

********************************************************************************
*                          Input from ZMAT file                                *
********************************************************************************
CFOUR input file for CASINO with g-orbitals                                     
C       0.000000      0.000000      0.000000                                    
H       0.629118      0.629118      0.629118                                    
H      -0.629118     -0.629118      0.629118                                    
H       0.629118     -0.629118     -0.629118                                    
H      -0.629118      0.629118     -0.629118                                    
                                                                                
*CFOUR(CALC=HF                                                                  
SCF_CONV=10                                                                     
SYMMETRY=OFF                                                                    
BASIS=svp                                                                       
COORD=CARTESIAN)                                                                
                                                                                
********************************************************************************
    -------------------------------------------------------------------
                    CFOUR Control Parameters 
    -------------------------------------------------------------------
        External           Internal           Value            Units
          Name               Name
    -------------------------------------------------------------------
       ABCDTYPE             IABCDT         STANDARD     [  0]   ***   
       ANHARMONIC           IANHAR         OFF          [  0]   ***   
       ANH_ALGORIT          IANALG         STANDARD     [  0]   ***   
       ANH_DERIVAT          IANDER         SECOND       [  1]   ***   
       ANH_STEPSIZ          ICUBST             50000          x 10-6  
       ANH_SYMMETR          IANHSM         ABELIAN      [  0]   ***   
       AO_LADDERS           IAOLAD         SINGLEPASS   [  1]   ***   
       BASIS                IBASIS         svp          [ 28]   ***   
       BREIT                IBREIT         OFF          [  0]   ***   
       BRUCK_CONV           IBRTOL          10D-  4             ***   
       BRUECKNER            IBRKNR             OFF      [  0]   ***   
       BUFFERSIZE           IBUFFS            600               ***   
       CACHE_RECS           ICHREC             10               ***   
       CALCLEVEL            ICLLVL           SCF        [  0]   ***   
       CCORBOPT             ICCORB             OFF      [  0] x 0.01  
       CC_CONV              ICCCNV          10D-  7             ***   
       CC_EXPORDER          ICCEOR              0               ***   
       CC_EXTRAPOL          ICCEXT             DIIS     [  1]   ***   
       CC_MAXCYC            ICCCYC              0              cycles 
       CC_PROGRAM           ICCPRO         VCC          [  0]   ***   
       CHARGE               ICHRGE              0               ***   
       CHOLESKY             ICHOLE         OFF          [  0]   ***   
       CIS_CONV             ICISTL              5               ***   
       COMM_SIZE            IPSIZE            ***               ***   
       CONSTANT             ICONST         OLD          [  1]   ***   
       CONTINUUM            ICONTU         NONE         [  0]   ***   
       CONTRACTION          ICNTYP          GENERAL     [  1]   ***   
       COORDINATES          ICOORD         CARTESIAN    [  1]   ***   
       CPHF_CONVER          ICPHFT          10D- 16             ***   
       CPHF_MAXCYC          ICPHFC             64              cycles 
       CUBIC                ICUBIC         OFF          [  0]   ***   
       CURVILINEAR          ICURVY            OFF       [  0]   ***   
       DBOC                 IDBOC          OFF          [  0]   ***   
       DCT                  IDCT           OFF          [  0]   ***   
       DERIV_LEV            IDRLVL            ZERO      [  0]   ***   
       DIAG_MRCC            IEOMST          10D-  0             ***   
       DIFF_TYPE            IDIFTY         RELAXED      [  0]   ***   
       DIRECT               IDIRCT         OFF          [  0]   ***   
       DROPMO               IDRPMO      NONE         
       ECP                  IECP           OFF          [  0]   ***   
       EIGENVECTOR          IVEC                1               ***   
       EL_ANHARM            IELANH         OFF          [  0]   ***   
       EOMFOLLOW            IEOMSR         ENERGY       [  0]   ***   
       EOM_MRCC             IMRCCE         NEW          [  1]   ***   
       EOM_NONIT            EOMNON         OFF          [  0]   ***   
       EOM_NSING            IEOMSI          10D-  0             ***   
       EOM_NSTATES          IMRCCD         DAVIDSON     [  0]   ***   
       EOM_NTRIP            IEOMTR          10D-  0             ***   
       EOM_ORDER            IEXORD         ENERGY       [  0]   ***   
       ESTATE_CONV          IEXTOL          10D-  5             ***   
       ESTATE_DIAG          IEXDIG         ITERATIVE    [  0]   ***   
       ESTATE_LOCK          IESLOC         ON           [  1]   ***   
       ESTATE_MAXC          IEXMXC             20               ***   
       ESTATE_PROP          IEXPRP         OFF          [  0]   ***   
       EVAL_HESS            IRECAL              0            # of cyc.
       EXCITATION           IEXCIT              0               ***   
       EXCITE               IEXCIT         NONE         [  0]   ***   
       FCGRADNEW            IFCGNW         OFF          [  0]   ***   
       FC_FIELD             IFINFC              0             x 10-6  
       FD_CALTYPE           IFDCAL         GRADONLY     [  0]   ***   
       FD_PROJECT           IFDPRJ         OFF          [  1]   ***   
       FD_STEPSIZE          IDISFD              0            10-4 bohr
       FD_USEGROUP          IFDGRP         FULL         [  0]   ***   
       FILE_RECSIZ          IFLREC              4096           words  
       FINITE_PERT          IFIPER              0             x 10-6  
       FIXGEOM              IFIXGM         OFF          [  0]   ***   
       FOCK                 IFOCK          AO           [  1]   ***   
       FREQ_ALGORI          IVIALG         STANDARD     [  0]   ***   
       FROZEN_CORE          IFROCO         OFF          [  0]   ***   
       FROZEN_VIRT          IFROVI         OFF          [  0]   ***   
       GAMMA_ABCD           IGABCD         STORE        [  0]   ***   
       GAMMA_ABCI           IGABCI         STORE        [  0]   ***   
       GENBAS_1             IGNBS1              0               ***   
       GENBAS_2             IGNBS2              0               ***   
       GENBAS_3             IGNBS3              0               ***   
       GENBAS_4             IGNBS4              0               ***   
       GEO_CONV             ICONTL              5              H/bohr 
       GEO_MAXCYC           IOPTCY             50               ***   
       GEO_MAXSTEP          IMXSTP            300            millibohr
       GEO_METHOD           INR            SINGLE_POINT [  5]   ***   
       GIAO                 IGIAO          OFF          [  1]   ***   
       GIMIC                IGIMIC         OFF          [  0]   ***   
       GRID                 IGRID          OFF          [  0]   ***   
       GRID_ALGO            IGALGO         SERIAL       [  0]   ***   
       GUESS                IGUESS            MOREAD    [  0]   ***   
       HBAR                 IHBAR              OFF      [  0]   ***   
       HESS_TYPE            IHESTP         SCF          [  0]   ***   
       HF2_FILE             IHF2Fl         USE          [  1]   ***   
       HFSTABILITY          ISTABL         OFF          [  0]   ***   
       INCORE               INCORE             OFF      [  0]   ***   
       INPUT_MRCC           IMRCC          ON           [  1]   ***   
       INTEGRALS            INTTYP             VMOL     [  1]   ***   
       JODA_PRINT           IJPRNT              0               ***   
       LINDEP_TOL           ILINDP              8               ***   
       LINEQ_CONV           IZTACN          10D-  7           cycles  
       LINEQ_EXPOR          ILMAXD              5               ***   
       LINEQ_MAXCY          ILMAXC             50               ***   
       LINEQ_TYPE           ILTYPE         DIIS         [  1]   ***   
       LOCK_ORBOCC          ILOCOC             OFF      [  0]   ***   
       MEMORY_SIZE          IMEMSZ         100000000           words  
       MEM_UNIT             IMEMU          INTEGERWORDS [  0]   ***   
       MRCC                 IMRCCC         OFF          [  0]   ***   
       MULTIPLICTY          IMULTP              1               ***   
       NEGEVAL              IDIE             ABORT      [  0]   ***   
       NEWNORM              INEWNO         OFF          [  0]   ***   
       NON-HF               INONHF             OFF      [  0]   ***   
       NTOP_TAMP            ITOPT2             15               ***   
       NUC_MODEL            INUCMO         POINT        [  0]   ***   
       OCCUPATION           IOCCU   ESTIMATED BY SCF 
       OPEN-SHELL           IOPEN          SPIN-ORBITAL [  0]   ***   
       ORBITALS             IORBTP           STANDARD   [  0]   ***   
       PARALLEL             IPARAL         ON           [  1]   ***   
       PARA_INT             IPINTS         ON           [  1]   ***   
       PARA_PRINT           IPPRIN              0               ***   
       PERT_ORB             IPTORB         STANDARD     [  0]   ***   
       POINTS               IGRDFD              0               ***   
       PRINT                IPRNT               0               ***   
       PROPS                IPROPS             OFF      [  0]   ***   
       PROP_INTEGR          IINTYP         INTERNAL     [  0]   ***   
       PSI                  IPSI           OFF          [  0]   ***   
       QUARTIC              IQUART         OFF          [  0]   ***   
       RAMAN_INT            IRAMIN         OFF          [  0]   ***   
       RAMAN_ORB            IRAMRE         UNRELAXED    [  0]   ***   
       RDO                  IRDOFM             OFF      [  0]   ***   
       REFERENCE            IREFNC             RHF      [  0]   ***   
       RELATIVIST           IRELAT         OFF          [  0]   ***   
       RELAX_DENS           IRDENS             OFF      [  0]   ***   
       RESET_FLAGS          IRESET             OFF      [  0]   ***   
       RESTART_CC           ICCRES         OFF          [  0]   ***   
       ROT_EVEC             ROTVEC              0               ***   
       SAVE_INTS            ISVINT             OFF      [  0]   ***   
       SCALE_ON             ISTCRT              0               ***   
       SCF_CONV             ISCFCV          10D- 10             ***   
       SCF_DAMPING          IDAMP               0             x 10-3  
       SCF_EXPORDE          IRPPOR              6               ***   
       SCF_EXPSTAR          IRPPLS              8               ***   
       SCF_EXTRAPO          IRPP                ON      [  1]   ***   
       SCF_MAXCYC           ISCFCY            150              cycles 
       SCF_NOSTOP           ISCFST         OFF          [  0]   ***   
       SCF_PRINT            ISCFPR              0               ***   
       SD_FIELD             IFINSD              0             x 10-6  
       SEQUENCE             ISEQUE         OFF          [  0]   ***   
       SOPERT               IPERSO         OFF          [  0]   ***   
       SPHERICAL            IDFGHI             ON       [  1]   ***   
       SPINORBIT            ISOCAL         OFF          [  0]   ***   
       SPINROTATIO          ISRCON         OFF          [  0]   ***   
       SPIN_FLIP            ISPFLP         OFF          [  0]   ***   
       SPIN_ORBIT           ISPORB         OFF          [  0]   ***   
       SPIN_SCAL            ISCSMP         OFF          [  0]   ***   
       SUBGROUP             ISUBGP         DEFAULT      [  0]   ***   
       SUBGRPAXIS           ISBXYZ         X            [  0]   ***   
       SYMMETRY             ISYM            OFF         [  1]   ***   
       SYM_CHECK            ISYMCK         OVERRIDE     [  1]   ***   
       T3_EXTRAPOL          IT3EXT         OFF          [  0]   ***   
       TAMP_SUM             IEVERY              0               ***   
       TESTSUITE            ITESTS         OFF          [  0]   ***   
       THERMOCH             ITHERM         OFF          [  0]   ***   
       TOL_CHOLESK          ITOLCH          10D-  4             ***   
       TRANGRAD             IRESRM         OFF          [  0]   ***   
       TRANS_INV            ITRAIN         USE          [  0]   ***   
       TREAT_PERT           ITREAT         SIMULTANEOUS [  0]   ***   
       UIJ_THRESHO          IUIJTH              1               ***   
       UNITS                IUNITS         ANGSTROM     [  0]   ***   
       UNOS                 IUNOS          OFF          [  0]   ***   
       UPDATE_HESS          IHUPDT         ON           [  1]   ***   
       VIBPHASE             ISETPH         STANDARD     [  0]   ***   
       VIBRATION            IVIB              NO        [  0]   ***   
       VIB_ALGORIT          IGEALG         STANDARD     [  0]   ***   
       VNATORB              IVNORB         OFF          [  0]   ***   
       VTRAN                IVTRAN         FULL/PARTIAL [  0]   ***   
       XFIELD               IXEFLD              0             x 10-6  
       XFORM_TOL            IXFTOL          10D- 11             ***   
       YFIELD               IYEFLD              0             x 10-6  
       ZFIELD               IZEFLD              0             x 10-6  
    -------------------------------------------------------------------
  @GETXYZ-I,     5 atoms read from ZMAT.
  1  C          6    12.00000
  2  H          1     1.00783
  3  H          1     1.00783
  4  H          1     1.00783
  5  H          1     1.00783
  1  C          6    12.00000
  2  H          1     1.00783
  3  H          1     1.00783
  4  H          1     1.00783
  5  H          1     1.00783
 factor:   60.199719999999999     
   Rotational constants (in cm-1): 
          5.2827152700             5.2827152700             5.2827152700
   Rotational constants (in MHz): 
     158371.8417567255        158371.8417567255        158371.8417567255
********************************************************************************
   The full molecular point group is T d .
   The largest Abelian subgroup of the full molecular point group is C2v .
   The computational point group is C1  .
********************************************************************************
 ----------------------------------------------------------------
 Z-matrix   Atomic            Coordinates (in bohr)
  Symbol    Number           X              Y              Z
 ----------------------------------------------------------------
     C         6         0.00000000     0.00000000     0.00000000
     H         1         1.68130331     0.00000000     1.18886097
     H         1        -1.68130331     0.00000000     1.18886097
     H         1         0.00000000    -1.68130331    -1.18886097
     H         1         0.00000000     1.68130331    -1.18886097
 ----------------------------------------------------------------
   Interatomic distance matrix (Angstroms) 

                 C             H             H             H             H    
                [ 1]        [ 2]        [ 3]        [ 4]        [ 5]
  C    [ 1]     0.00000
  H    [ 2]     1.08966     0.00000
  H    [ 3]     1.08966     1.77941     0.00000
  H    [ 4]     1.08966     1.77941     1.77941     0.00000
  H    [ 5]     1.08966     1.77941     1.77941     1.77941     0.00000
   Rotational constants (in cm-1): 
          5.2827152700             5.2827152700             5.2827152700
   Rotational constants (in MHz): 
     158371.8417567255        158371.8417567255        158371.8417567255
  There are  189 basis functions.
 @GEOPT-W, Archive file not created for single-point calculation.
  @CHECKOUT-I, Total execution time (CPU/WALL):        0.63/       0.65 seconds.
--executable xjoda finished with status     0 in        0.79 seconds (walltime).
 --invoking executable--
/usr/local/cfour/bin/xvmol
 Serial version of molecule started
********************************************************************************
                    Input from MOL file
********************************************************************************
INTGRL        1    0    1    0    0    0    0    0    0                         
         *** CFOUR Program System (Release V0.1) ***                            
CFOUR input file for CASINO with g-orbitals                                     
    5    0            0.10E-08              0    0                              
   9999.00      3.00                                                            
          6.00000000    1    5    0    0    0    0    5                         
C #1   0.000000000000000   0.000000000000000   0.000000000000000                
    3    1                                                                      
   60.043438279533717       0.11407461847341316                                 
   22.167505485221010       0.10668188273112433                                 
   4.8023959698887424        15.216852924688135                                 
    1    1                                                                      
   1.4833907695011570        1.0000000000000000                                 
    1    1                                                                      
  0.46178952710355969        1.0000000000000000                                 
    1    1                                                                      
  0.30249228070031442        1.0000000000000000                                 
    1    1                                                                      
   9.0284122197480249E-002   1.0000000000000000                                 
          1.00000000    1    5    0    0    0    0    4                         
H #2   1.681303306460232   0.000000000000000   1.188860969229394                
    3    1                                                                      
   10.178704699742342        5.9884370424923472E-004                            
   2.3952640718028237       -9.8094243397848932E-002                            
   1.0486496863195751       0.94847150361269594                                 
    1    1                                                                      
  0.72018956988162897        1.0000000000000000                                 
    1    1                                                                      
  0.33281514997841094        1.0000000000000000                                 
    1    1                                                                      
  0.12166473257337672        1.0000000000000000                                 
          1.00000000    1    5    0    0    0    0    4                         
H #3  -1.681303306460232   0.000000000000000   1.188860969229394                
    3    1                                                                      
   10.178704699742342        5.9884370424923472E-004                            
   2.3952640718028237       -9.8094243397848932E-002                            
   1.0486496863195751       0.94847150361269594                                 
    1    1                                                                      
  0.72018956988162897        1.0000000000000000                                 
    1    1                                                                      
  0.33281514997841094        1.0000000000000000                                 
    1    1                                                                      
  0.12166473257337672        1.0000000000000000                                 
          1.00000000    1    5    0    0    0    0    4                         
H #4   0.000000000000000  -1.681303306460232  -1.188860969229394                
    3    1                                                                      
   10.178704699742342        5.9884370424923472E-004                            
   2.3952640718028237       -9.8094243397848932E-002                            
   1.0486496863195751       0.94847150361269594                                 
    1    1                                                                      
  0.72018956988162897        1.0000000000000000                                 
    1    1                                                                      
  0.33281514997841094        1.0000000000000000                                 
    1    1                                                                      
  0.12166473257337672        1.0000000000000000                                 
          1.00000000    1    5    0    0    0    0    4                         
H #5   0.000000000000000   1.681303306460232  -1.188860969229394                
    3    1                                                                      
   10.178704699742342        5.9884370424923472E-004                            
   2.3952640718028237       -9.8094243397848932E-002                            
   1.0486496863195751       0.94847150361269594                                 
    1    1                                                                      
  0.72018956988162897        1.0000000000000000                                 
    1    1                                                                      
  0.33281514997841094        1.0000000000000000                                 
    1    1                                                                      
  0.12166473257337672        1.0000000000000000                                 
FINISH                                                                          

********************************************************************************
 One- and two-electron integrals over symmetry-adapted AOs are calculated.

  Spherical harmonics are used.
  
  Integrals less than  0.10E-13 are neglected.

   Basis function not normalized: 
   Center (as ordered in MOL file):   1
   Angular Momentum type          : g
   Offset within angular momentum :  1
   <chi|chi>                      :    0.0655919817
   Basis function not normalized: 
   Center (as ordered in MOL file):   2
   Angular Momentum type          : g
   Offset within angular momentum :  1
   <chi|chi>                      :    1.1241326831
   Basis function not normalized: 
   Center (as ordered in MOL file):   3
   Angular Momentum type          : g
   Offset within angular momentum :  1
   <chi|chi>                      :    1.1241326831
   Basis function not normalized: 
   Center (as ordered in MOL file):   4
   Angular Momentum type          : g
   Offset within angular momentum :  1
   <chi|chi>                      :    1.1241326831
   Basis function not normalized: 
   Center (as ordered in MOL file):   5
   Angular Momentum type          : g
   Offset within angular momentum :  1
   <chi|chi>                      :    1.1241326831
  Nuclear repulsion energy :   13.4395250729 a.u.
  required memory for a1 array               5473552  words 
  required memory for a2 array               2152169  words 
 @GETMEM-I,  Allocated      73 MB of main memory.
  @MOLECU-I, One electron integrals (CPU/WALL):        2.20/       1.18 seconds.
  @TWOEL-I,  135344577 integrals of symmetry type  I I I I
  @TWOEL-I, Total number of 2-e integrals  135344577.
  @MOLECU-I, Two electron integrals (CPU/WALL):     5072.52/    2829.41 seconds.
  @CHECKOUT-I, Total execution time (CPU/WALL):     5092.45/    2848.33 seconds.
--executable xvmol finished with status     0 in     2848.50 seconds (walltime).
 --invoking executable--
/usr/local/cfour/bin/xvmol2ja
 @GETMEM-I,  Allocated     762 MB of main memory.
  @CHECKOUT-I, Total execution time (CPU/WALL):        0.10/       0.06 seconds.
--executable xvmol2ja finished with status     0 in        0.26 seconds (walltime).
 --invoking executable--
/usr/local/cfour/bin/xvscf
  There are  189 functions in the AO basis.

  There are 1 irreducible representations.

       Irrep        # of functions
         1                189


  Parameters for SCF calculation: 
        SCF reference function:  RHF  
  Maximum number of iterations:  150
     Full symmetry point group: T d 
     Computational point group: C1  
        Initial density matrix: MOREAD                 
     SCF convergence tolerance: 10**(-10)
  DIIS convergence acceleration:  ON
          Latest start for DIIS:   8
                     DIIS order:   6

  Memory information:    3447708 words required.
  Fock matrices are constructed from AO integral file.
 @GETMEM-I,  Allocated      26 MB of main memory.
  Initialization and symmetry analysis required      0.018 seconds.

  @INITGES-I, Occupancies from core Hamiltonian:

          Alpha population by irrep:   5
           Beta population by irrep:   5


 total no. of electrons in initial guess :   0.0000000000000000     
  --------------------------------------------------------------------
  Iteration         Total Energy            Largest Density Difference
  --------------------------------------------------------------------
       0            13.439525072866369              0.0000000000D+00
       1            -6.199537329980005              0.5745469971D-01
       2            -7.529077788923781              0.4360726437D-01
       3            -7.541467091825956              0.2430237745D-02
       4            -7.542351165641159              0.1969589153D-03
       5            -7.542923744425549              0.1500806665D-03
       6            -7.543488319317353              0.1174512508D-03
       7            -7.543040568216059              0.8814599373D-04
       8            -7.539941632620932              0.6347973317D-03
       9            -7.540855326628678              0.2210539399D-03
      10            -7.537422723215800              0.1459029140D-02
      11            -7.537422312549586              0.2758399462D-05
      12            -7.537752447345541              0.1341481096D-03
      13            -7.538041680776848              0.1683351996D-03
      14            -7.538076309897251              0.4168693442D-04
      15            -7.538093041339435              0.2491467836D-04
      16            -7.538106938297117              0.3051609857D-04
      17            -7.538113168270675              0.1273716060D-04
      18            -7.538122489141935              0.1374222530D-04
      19            -7.538043433563045              0.1079137224D-03
      20            -7.537798952923461              0.4766856682D-03
      21            -7.537850965571879              0.1423900667D-03
      22            -7.537752820223504              0.4004323507D-03
      23            -7.537759061631215              0.6099803250D-04
      24            -7.537771452567670              0.8036648817D-04
      25            -7.537778704505206              0.7476677506D-04
      26            -7.537792639357994              0.6426636540D-04
      27            -7.537776011156462              0.9558886536D-04
      28            -7.537777621752019              0.8511905453D-05
      29            -7.537772932656774              0.4023115121D-04
      30            -7.537770949474661              0.1693902319D-04
      31            -7.537769378424555              0.2148960427D-04
      32            -7.537768769832399              0.1997606649D-04
      33            -7.537768760488353              0.4189681016D-05
      34            -7.537768753840565              0.1334837389D-05
      35            -7.537768748660804              0.1173505324D-05
      36            -7.537768745308314              0.9949155311D-06
      37            -7.537768743912844              0.7589449639D-06
      38            -7.537768743601559              0.4338061770D-06
      39            -7.537768743405982              0.3305868475D-06
      40            -7.537768743351480              0.2366828815D-06
      41            -7.537768743351679              0.3439524357D-07
      42            -7.537768743351867              0.7353476089D-08
      43            -7.537768743351878              0.1086448574D-08
      44            -7.537768743352062              0.5698995507D-09
      45            -7.537768743351689              0.7631507505D-09
      46            -7.537768743351771              0.2996535632D-09
      47            -7.537768743351878              0.1914684898D-09

  SCF has converged.

 Density matrix saved to file den.dat
 total electron number:   10.000000000000234     
     E(SCF)=        -7.537768743351917              0.6439309079D-10

  Eigenvector printing suppressed.

 @PUTMOS-I, Writing converged MOs to NEWMOS. 
 @PUTMOS-I, Symmetry   1 Full Blocks 47 Partial Blocksize   1



  ORBITAL EIGENVALUES (ALPHA)  (1H = 27.2113838 eV)

       MO #        E(hartree)               E(eV)           FULLSYM    COMPSYM
       ----   --------------------   --------------------   -------   ---------
    1     1          -1.7993512915         -48.9628386205      A1         A (1)
    2     2          -0.4713775357         -12.8268350467       E         A (1)
    3     3          -0.4713775345         -12.8268350147       E         A (1)
    4     4          -0.4582978416         -12.4709184724                 A (1)
    5     5           0.0440413421           1.1984258628                 A (1)
  +++++++++++++++++++++++++++++++++++++++++++++++++++++++++++++++++++++++++++++
    6     6           0.2435528860           6.6274110612       E         A (1)
    7     7           0.2435528870           6.6274110880       E         A (1)
    8     8           0.3334283495           9.0730467935       E         A (1)
    9     9           0.3334283512           9.0730468422       E         A (1)
   10    10           0.3606879808           9.8148190857                 A (1)
   11    11           0.3617297555           9.8431672146                 A (1)
   12    12           0.3681244114          10.0171746524       E         A (1)
   13    13           0.3681244115          10.0171746559       E         A (1)
   14    14           0.3753653607          10.2142109026       E         A (1)
   15    15           0.3753653608          10.2142109043       E         A (1)
   16    16           0.3761828863          10.2364569067                 A (1)
   17    17           0.3776870692          10.2773878032                 A (1)
   18    18           0.3843061877          10.4575031774                 A (1)
   19    19           0.3872982583          10.5389215590       E         A (1)
   20    20           0.3872982588          10.5389215728       E         A (1)
   21    21           0.3888486886          10.5811109143       E         A (1)
   22    22           0.3888486896          10.5811109391       E         A (1)
   23    23           0.4067034845          11.0669646169                 A (1)
   24    24           0.4067124062          11.0672073881                 A (1)
   25    25           0.4067124063          11.0672073930                 A (1)
   26    26           0.5480110131          14.9121380138       E         A (1)
   27    27           0.5480110133          14.9121380203       E         A (1)
   28    28           0.5505844531          14.9821648781                 A (1)
   29    29           0.5742694775          15.6266671687       E         A (1)
   30    30           0.5742694781          15.6266671837       E         A (1)
   31    31           0.5778732839          15.7247317273                 A (1)
   32    32           0.6450317921          17.5522076697       E         A (1)
   33    33           0.6450317923          17.5522076770       E         A (1)
   34    34           0.6670446049          18.1512067696       E         A (1)
   35    35           0.6670446050          18.1512067711       E         A (1)
   36    36           0.6675494916          18.1649454340                 A (1)
   37    37           0.7123166696          19.3831222965                 A (1)
   38    38           0.7398223501          20.1315899257                 A (1)
   39    39           0.7450092592          20.2727329006       E         A (1)
   40    40           0.7450092599          20.2727329189       E         A (1)
   41    41           0.7619088048          20.7325929223      A1         A (1)
   42    42           0.8060672162          21.9342044035       E         A (1)
   43    43           0.8060672164          21.9342044106       E         A (1)
   44    44           0.8118369347          22.0912064284                 A (1)
   45    45           0.8211899307          22.3457143923       E         A (1)
   46    46           0.8211899312          22.3457144058       E         A (1)
   47    47           0.8508830883          23.1537063020                 A (1)
   48    48           0.8578025450          23.3419942921       E         A (1)
   49    49           0.8578025456          23.3419943100       E         A (1)
   50    50           0.9008449862          24.5132386813      A1         A (1)
   51    51           0.9488860290          25.8205019372       E         A (1)
   52    52           0.9488860300          25.8205019621       E         A (1)
   53    53           0.9565471776          26.0289723925                 A (1)
   54    54           0.9767838933          26.5796414294       E         A (1)
   55    55           0.9767838938          26.5796414418       E         A (1)
   56    56           1.0464841095          28.4762807647                 A (1)
   57    57           1.0529713752          28.6528082411       E         A (1)
   58    58           1.0529713761          28.6528082670       E         A (1)
   59    59           1.1141139675          30.3165827883       E         A (1)
   60    60           1.1141139686          30.3165828172       E         A (1)
   61    61           1.1244251147          30.5971633725                 A (1)
   62    62           1.1778870666          32.0519370654       E         A (1)
   63    63           1.1778870667          32.0519370674       E         A (1)
   64    64           1.3657535930          37.1640452223       E         A (1)
   65    65           1.3657535940          37.1640452500       E         A (1)
   66    66           1.3757554979          37.4362108946                 A (1)
   67    67           1.3802307210          37.5579879083                 A (1)
   68    68           1.3869795856          37.7416338530       E         A (1)
   69    69           1.3869795863          37.7416338738       E         A (1)
   70    70           1.5097092268          41.0812772252      A1         A (1)
   71    71           1.5904746359          43.2790157723                 A (1)
   72    72           1.5995158439          43.5250395543       E         A (1)
   73    73           1.5995158445          43.5250395699       E         A (1)
   74    74           1.6052888457          43.6821309222       E         A (1)
   75    75           1.6052888471          43.6821309591       E         A (1)
   76    76           1.6069701515          43.7278815788                 A (1)
   77    77           1.6077720963          43.7497036080                 A (1)
   78    78           1.6392837334          44.6071788581                 A (1)
   79    79           1.6409309191          44.6520010616       E         A (1)
   80    80           1.6409309196          44.6520010734       E         A (1)
   81    81           1.6438243662          44.7307357611       E         A (1)
   82    82           1.6438243664          44.7307357661       E         A (1)
   83    83           1.6883142333          45.9413666099                 A (1)
   84    84           1.7032646602          46.3481884141       E         A (1)
   85    85           1.7032646618          46.3481884588       E         A (1)
   86    86           1.8156282078          49.4057560363       E         A (1)
   87    87           1.8156282079          49.4057560383       E         A (1)
   88    88           1.9962506494          54.3207426201                 A (1)
   89    89           2.0085830838          54.6563252259       E         A (1)
   90    90           2.0085830846          54.6563252481       E         A (1)
   91    91           2.1163554856          57.5889614175      A1         A (1)
   92    92           2.2991450634          62.5629187775                 A (1)
   93    93           2.3002805536          62.5938170357       E         A (1)
   94    94           2.3002805546          62.5938170634       E         A (1)
   95    95           2.3266950214          63.3125912573                 A (1)
   96    96           2.5319765710          68.8985862969                 A (1)
   97    97           2.5472890232          69.3152593105       E         A (1)
   98    98           2.5472890253          69.3152593655       E         A (1)
   99    99           2.5911769212          70.5095097466       E         A (1)
  100   100           2.5911769217          70.5095097620       E         A (1)
  101   101           2.6847630914          73.0561189450       E         A (1)
  102   102           2.6847630921          73.0561189645       E         A (1)
  103   103           2.6924399185          73.2650160337                 A (1)
  104   104           3.1515864831          85.7590294321                 A (1)
  105   105           3.1538867855          85.8216238439       E         A (1)
  106   106           3.1538867863          85.8216238643       E         A (1)
  107   107           3.3426670233          90.9585953508       E         A (1)
  108   108           3.3426670235          90.9585953576       E         A (1)
  109   109           3.4530060736          93.9610735991      A1         A (1)
  110   110           3.4957745102          95.1248619448       E         A (1)
  111   111           3.4957745112          95.1248619703       E         A (1)
  112   112           3.5039955949          95.3485690340                 A (1)
  113   113           3.5399389297          96.3266369151       E         A (1)
  114   114           3.5399389299          96.3266369187       E         A (1)
  115   115           3.5409206621          96.3533512111                 A (1)
  116   116           3.6306668931          98.7954703502       E         A (1)
  117   117           3.6306668960          98.7954704282       E         A (1)
  118   118           3.6596510633          99.5841697292       E         A (1)
  119   119           3.6596510639          99.5841697446       E         A (1)
  120   120           3.6659331111          99.7551129441                 A (1)
  121   121           3.8466473299         104.6725969136                 A (1)
  122   122           3.8540335416         104.8735859539       E         A (1)
  123   123           3.8540335431         104.8735859941       E         A (1)
  124   124           3.8780013656         105.5257836109       E         A (1)
  125   125           3.8780013656         105.5257836120       E         A (1)
  126   126           3.9888797936         108.5429390749       E         A (1)
  127   127           3.9888797967         108.5429391571       E         A (1)
  128   128           3.9973013922         108.7721024253                 A (1)
  129   129           4.0228046564         109.4660815359                 A (1)
  130   130           4.0244444030         109.5107013093       E         A (1)
  131   131           4.0244444048         109.5107013584       E         A (1)
  132   132           4.1898792463         114.0124123297                 A (1)
  133   133           4.2123672137         114.6243410405                 A (1)
  134   134           4.2148237054         114.6911855782       E         A (1)
  135   135           4.2148237066         114.6911856112       E         A (1)
  136   136           6.5261490384         177.5855463485       E         A (1)
  137   137           6.5261490385         177.5855463503       E         A (1)
  138   138           6.5299072833         177.6878133928                 A (1)
  139   139           6.6423604620         180.7478199987                 A (1)
  140   140           6.7764992934         184.3979232260       E         A (1)
  141   141           6.7764992935         184.3979232290       E         A (1)
  142   142           6.8252903332         185.7255949366                 A (1)
  143   143           6.8404853035         186.1390711051       E         A (1)
  144   144           6.8404853046         186.1390711352       E         A (1)
  145   145           7.0952239148         193.0708612317       E         A (1)
  146   146           7.0952239166         193.0708612804       E         A (1)
  147   147           7.1172753193         193.6709104619                 A (1)
  148   148           7.1200645833         193.7468101977       E         A (1)
  149   149           7.1200645836         193.7468102056       E         A (1)
  150   150           7.1737252877         195.2069922186       E         A (1)
  151   151           7.1737252877         195.2069922210       E         A (1)
  152   152           7.1854564580         195.5262135966                 A (1)
  153   153           7.4759908624         203.4320567892                 A (1)
  154   154           7.4773821764         203.4699163677       E         A (1)
  155   155           7.4773821769         203.4699163825       E         A (1)
  156   156           7.5392552336         205.1535678752                 A (1)
  157   157           7.5564342766         205.6210334070       E         A (1)
  158   158           7.5564342772         205.6210334242       E         A (1)
  159   159           7.6461991685         208.0636603361      A1         A (1)
  160   160           7.6661729013         208.6071732435                 A (1)
  161   161           7.6942198903         209.3703706273       E         A (1)
  162   162           7.6942198904         209.3703706301       E         A (1)
  163   163           7.7025638048         209.5974200862                 A (1)
  164   164           7.7417749578         210.6644098222       E         A (1)
  165   165           7.7417749593         210.6644098626       E         A (1)
  166   166           7.7664036015         211.3345892970       E         A (1)
  167   167           7.7664036027         211.3345893295       E         A (1)
  168   168           7.7757364430         211.5885488292                 A (1)
  169   169           7.8896904281         214.6893944577                 A (1)
  170   170           7.9073428653         215.1697417009       E         A (1)
  171   171           7.9073428665         215.1697417344       E         A (1)
  172   172           7.9356510030         215.9400453018       E         A (1)
  173   173           7.9356510035         215.9400453139       E         A (1)
  174   174           7.9420092722         216.1130626041                 A (1)
  175   175           8.2337494684         224.0517170595      A1         A (1)
  176   176           8.4332510964         229.4804324308       E         A (1)
  177   177           8.4332510971         229.4804324513       E         A (1)
  178   178           8.5263999840         232.0151425640                 A (1)
  179   179           8.5457321352         232.5411971491       E         A (1)
  180   180           8.5457321352         232.5411971494       E         A (1)
  181   181          24.0269749884         653.8072384316       E         A (1)
  182   182          24.0269749888         653.8072384436       E         A (1)
  183   183          24.0341088374         654.0013603349                 A (1)
  184   184          24.1148288061         656.1978623867      A1         A (1)
  185   185          24.1276444665         656.5465942391                 A (1)
  186   186          24.1329830782         656.6918652536       E         A (1)
  187   187          24.1329830788         656.6918652676       E         A (1)
  188   188          24.1961525282         658.4107934016       E         A (1)
  189   189          24.1961525284         658.4107934077       E         A (1)


  VSCF finished.

  @CHECKOUT-I, Total execution time (CPU/WALL):      496.35/    1355.03 seconds.
--executable xvscf finished with status     0 in     1355.10 seconds (walltime).
  The final electronic energy is        -7.537768743351917 a.u. 
  This computation required                         4204.76 seconds (walltime).
