[Molden Format]
[Title]
 Molden file created by orca_2mkl for BaseName=./N4

[Atoms] AU
N    1   7          0.9826575891         0.9968305351         0.9684846431 
N    2   7         -0.9826575891        -0.9873819044         0.9873819044 
N    3   7         -0.9826575891         0.9779332738        -0.9779332738 
N    4   7          0.9826575891        -0.9873819044        -0.9779332738 
[GTO]
  1 0
s   9 1.0 
    45840.0000000000         0.2070013119
     6868.0000000000         0.3885023806
     1563.0000000000         0.6693241386
      442.4000000000         1.0760700264
      144.3000000000         1.5891765404
       52.1800000000         2.0467625615
       20.3400000000         2.0957271491
        8.3810000000         1.4068954098
        3.5290000000         0.4024679210
s   9 1.0 
    45840.0000000000        -0.1280239503
     6868.0000000000        -0.2451024263
     1563.0000000000        -0.4185277093
      442.4000000000        -0.6855177236
      144.3000000000        -1.0179501673
       52.1800000000        -1.4038213591
       20.3400000000        -1.5671074566
        8.3810000000        -1.4767088923
        3.5290000000        -0.6121674414
s   1 1.0 
        1.0540000000         0.7413794612
s   1 1.0 
        0.4118000000         0.3663741711
s   1 1.0 
        0.1552000000         0.1762296099
p   3 1.0 
       49.3300000000         5.8003427037
       11.3700000000         6.3555590049
        3.4350000000         5.5883087071
p   1 1.0 
        1.1820000000         1.7567579743
p   1 1.0 
        0.4173000000         0.4780799923
p   1 1.0 
        0.1428000000         0.1251268026
d   1 1.0 
        2.8370000000        17.6796605055
d   1 1.0 
        0.9680000000         2.6930967689
d   1 1.0 
        0.3350000000         0.4205314648
f   1 1.0 
        2.0270000000        27.9525230183
f   1 1.0 
        0.6850000000         2.4339063574
g   1 1.0 
        1.4270000000        17.5039221697

  2 0
s   9 1.0 
    45840.0000000000         0.2070013119
     6868.0000000000         0.3885023806
     1563.0000000000         0.6693241386
      442.4000000000         1.0760700264
      144.3000000000         1.5891765404
       52.1800000000         2.0467625615
       20.3400000000         2.0957271491
        8.3810000000         1.4068954098
        3.5290000000         0.4024679210
s   9 1.0 
    45840.0000000000        -0.1280239503
     6868.0000000000        -0.2451024263
     1563.0000000000        -0.4185277093
      442.4000000000        -0.6855177236
      144.3000000000        -1.0179501673
       52.1800000000        -1.4038213591
       20.3400000000        -1.5671074566
        8.3810000000        -1.4767088923
        3.5290000000        -0.6121674414
s   1 1.0 
        1.0540000000         0.7413794612
s   1 1.0 
        0.4118000000         0.3663741711
s   1 1.0 
        0.1552000000         0.1762296099
p   3 1.0 
       49.3300000000         5.8003427037
       11.3700000000         6.3555590049
        3.4350000000         5.5883087071
p   1 1.0 
        1.1820000000         1.7567579743
p   1 1.0 
        0.4173000000         0.4780799923
p   1 1.0 
        0.1428000000         0.1251268026
d   1 1.0 
        2.8370000000        17.6796605055
d   1 1.0 
        0.9680000000         2.6930967689
d   1 1.0 
        0.3350000000         0.4205314648
f   1 1.0 
        2.0270000000        27.9525230183
f   1 1.0 
        0.6850000000         2.4339063574
g   1 1.0 
        1.4270000000        17.5039221697

  3 0
s   9 1.0 
    45840.0000000000         0.2070013119
     6868.0000000000         0.3885023806
     1563.0000000000         0.6693241386
      442.4000000000         1.0760700264
      144.3000000000         1.5891765404
       52.1800000000         2.0467625615
       20.3400000000         2.0957271491
        8.3810000000         1.4068954098
        3.5290000000         0.4024679210
s   9 1.0 
    45840.0000000000        -0.1280239503
     6868.0000000000        -0.2451024263
     1563.0000000000        -0.4185277093
      442.4000000000        -0.6855177236
      144.3000000000        -1.0179501673
       52.1800000000        -1.4038213591
       20.3400000000        -1.5671074566
        8.3810000000        -1.4767088923
        3.5290000000        -0.6121674414
s   1 1.0 
        1.0540000000         0.7413794612
s   1 1.0 
        0.4118000000         0.3663741711
s   1 1.0 
        0.1552000000         0.1762296099
p   3 1.0 
       49.3300000000         5.8003427037
       11.3700000000         6.3555590049
        3.4350000000         5.5883087071
p   1 1.0 
        1.1820000000         1.7567579743
p   1 1.0 
        0.4173000000         0.4780799923
p   1 1.0 
        0.1428000000         0.1251268026
d   1 1.0 
        2.8370000000        17.6796605055
d   1 1.0 
        0.9680000000         2.6930967689
d   1 1.0 
        0.3350000000         0.4205314648
f   1 1.0 
        2.0270000000        27.9525230183
f   1 1.0 
        0.6850000000         2.4339063574
g   1 1.0 
        1.4270000000        17.5039221697

  4 0
s   9 1.0 
    45840.0000000000         0.2070013119
     6868.0000000000         0.3885023806
     1563.0000000000         0.6693241386
      442.4000000000         1.0760700264
      144.3000000000         1.5891765404
       52.1800000000         2.0467625615
       20.3400000000         2.0957271491
        8.3810000000         1.4068954098
        3.5290000000         0.4024679210
s   9 1.0 
    45840.0000000000        -0.1280239503
     6868.0000000000        -0.2451024263
     1563.0000000000        -0.4185277093
      442.4000000000        -0.6855177236
      144.3000000000        -1.0179501673
       52.1800000000        -1.4038213591
       20.3400000000        -1.5671074566
        8.3810000000        -1.4767088923
        3.5290000000        -0.6121674414
s   1 1.0 
        1.0540000000         0.7413794612
s   1 1.0 
        0.4118000000         0.3663741711
s   1 1.0 
        0.1552000000         0.1762296099
p   3 1.0 
       49.3300000000         5.8003427037
       11.3700000000         6.3555590049
        3.4350000000         5.5883087071
p   1 1.0 
        1.1820000000         1.7567579743
p   1 1.0 
        0.4173000000         0.4780799923
p   1 1.0 
        0.1428000000         0.1251268026
d   1 1.0 
        2.8370000000        17.6796605055
d   1 1.0 
        0.9680000000         2.6930967689
d   1 1.0 
        0.3350000000         0.4205314648
f   1 1.0 
        2.0270000000        27.9525230183
f   1 1.0 
        0.6850000000         2.4339063574
g   1 1.0 
        1.4270000000        17.5039221697

[5D]
[9G]
[MO]
 Sym=     1a
 Ene= -1.57486581680076E+01
 Spin= Alpha
 Occup= 2.000000
  1       0.500736597652
  2       0.000421840430
  3       0.008526966036
  4      -0.001868543567
  5       0.000731973630
  6      -0.000904233023
  7      -0.000909700004
  8      -0.000898347046
  9       0.000229765925
 10       0.000233624801
 11       0.000226301352
 12      -0.000162049686
 13      -0.000161222325
 14      -0.000163057532
 15      -0.000185861705
 16      -0.000195082812
 17      -0.000178747300
 18      -0.000000712229
 19       0.000044756659
 20       0.000044790532
 21      -0.000000359693
 22       0.000044923113
 23       0.000003178558
 24      -0.000050346059
 25      -0.000053450067
 26       0.000001790469
 27      -0.000056518961
 28      -0.000000830500
 29       0.000162660360
 30       0.000159996198
 31      -0.000000449123
 32       0.000157874528
 33      -0.000009565968
 34       0.000006200048
 35       0.000005996881
 36       0.000000271904
 37       0.000023600768
 38       0.000007307854
 39      -0.000007488254
 40       0.000036581618
 41      -0.000024680423
 42      -0.000021951797
 43      -0.000002142017
 44       0.000035072366
 45      -0.000025251565
 46       0.000025218775
 47      -0.000010615088
 48       0.000005719118
 49       0.000005310343
 50       0.000001075627
 51      -0.000014274529
 52      -0.000015306443
 53       0.000014347411
 54       0.000006637718
 55       0.000000045809
 56       0.475141848194
 57       0.000403972484
 58       0.008091004806
 59      -0.001778488473
 60       0.000561899504
 61       0.000852966880
 62       0.000856239503
 63      -0.000863824833
 64      -0.000212567799
 65      -0.000210871109
 66       0.000213657595
 67       0.000134580523
 68       0.000132670579
 69      -0.000139231830
 70       0.000158122340
 71       0.000149504571
 72      -0.000155106834
 73      -0.000000102844
 74      -0.000044108119
 75      -0.000044537044
 76      -0.000000931345
 77       0.000043888562
 78       0.000002292296
 79       0.000056028716
 80       0.000054995745
 81       0.000002216574
 82      -0.000056960956
 83       0.000002844803
 84      -0.000146462188
 85      -0.000147726777
 86      -0.000000365108
 87       0.000142283519
 88      -0.000009208696
 89      -0.000005925394
 90      -0.000006274916
 91      -0.000000446257
 92       0.000022104621
 93      -0.000007422539
 94       0.000007204168
 95       0.000031891757
 96       0.000020318802
 97       0.000021844956
 98      -0.000000023813
 99       0.000039962547
100       0.000024080527
101      -0.000024521390
102      -0.000009233129
103      -0.000005501207
104      -0.000005638861
105       0.000000018332
106      -0.000014629824
107       0.000014727251
108      -0.000013922792
109       0.000006668640
110      -0.000000092073
111       0.516355729937
112       0.000433628869
113       0.008797735742
114      -0.001930335066
115       0.000840782244
116       0.000938529223
117      -0.000926130041
118       0.000935268825
119      -0.000240515491
120       0.000240094229
121      -0.000241567741
122       0.000178303466
123      -0.000174884666
124       0.000179481029
125       0.000203618184
126      -0.000209879471
127       0.000209955323
128      -0.000000703332
129       0.000045663730
130      -0.000044761876
131       0.000000546597
132      -0.000045069123
133       0.000002832849
134      -0.000050519784
135       0.000052625135
136       0.000000671463
137       0.000051629693
138       0.000000691498
139       0.000172937863
140      -0.000167381105
141       0.000002559980
142      -0.000168620583
143       0.000009583982
144      -0.000006190747
145       0.000005762274
146      -0.000000703637
147       0.000024692051
148      -0.000007365116
149      -0.000008054331
150      -0.000036654769
151       0.000024163768
152      -0.000022564521
153       0.000002422569
154       0.000031548217
155       0.000028825440
156       0.000029059682
157      -0.000010302140
158       0.000005577980
159      -0.000005732062
160       0.000000757229
161       0.000014953024
162      -0.000014729030
163      -0.000014445938
164       0.000008105889
165      -0.000000126207
166       0.492936415009
167       0.000416913928
168       0.008396992659
169      -0.001845579253
170       0.000683449159
171      -0.000890399071
172       0.000893907207
173       0.000887402765
174       0.000225028779
175      -0.000223184556
176      -0.000225938081
177      -0.000154103594
178       0.000151812157
179       0.000154907819
180      -0.000179057873
181       0.000169712085
182       0.000184674564
183      -0.000001518673
184      -0.000044181849
185       0.000044654198
186      -0.000000987318
187      -0.000044917384
188       0.000003632422
189       0.000055057977
190      -0.000054027428
191       0.000002357304
192       0.000053034374
193      -0.000001016151
194      -0.000154911987
195       0.000156109894
196      -0.000000322204
197      -0.000157412576
198       0.000009526408
199       0.000005197313
200      -0.000005650271
201       0.000000445794
202       0.000023282397
203       0.000008052490
204       0.000007760445
205      -0.000033237416
206      -0.000020943814
207       0.000020949188
208      -0.000000939724
209       0.000036117168
210      -0.000026929338
211      -0.000028623302
212      -0.000009281516
213      -0.000005962816
214       0.000005456403
215       0.000000044316
216       0.000014607599
217       0.000014741017
218       0.000014137033
219       0.000007824321
220       0.000000427120
 Sym=     1a
 Ene= -1.57477358819915E+01
 Spin= Alpha
 Occup= 2.000000
  1       0.312333397126
  2       0.000205425242
  3       0.005205354257
  4      -0.000898125928
  5       0.001923854349
  6      -0.000514566364
  7      -0.000586965694
  8      -0.000524995939
  9       0.000252773291
 10       0.000136833628
 11       0.000223776186
 12      -0.000404769993
 13      -0.000243271489
 14      -0.000362932882
 15      -0.000536527066
 16      -0.000078094647
 17      -0.000430824699
 18      -0.000006562757
 19      -0.000006013994
 20       0.000021285776
 21      -0.000020073674
 22       0.000015215991
 23       0.000014437478
 24       0.000022536161
 25       0.000023687768
 26       0.000041771923
 27       0.000022555001
 28       0.000007694587
 29       0.000156350181
 30       0.000160947731
 31       0.000033237018
 32       0.000162920165
 33       0.000000471603
 34      -0.000014397177
 35       0.000004834904
 36      -0.000022093578
 37       0.000011649105
 38       0.000010011764
 39       0.000000960394
 40       0.000018998425
 41       0.000000435255
 42      -0.000038455151
 43       0.000006894957
 44      -0.000039410618
 45      -0.000008117752
 46       0.000048459730
 47      -0.000007841457
 48       0.000004750919
 49       0.000002091608
 50       0.000003048015
 51       0.000001633030
 52      -0.000016833323
 53      -0.000007969917
 54       0.000004979901
 55      -0.000006458472
 56       0.143252722066
 57       0.000095078081
 58       0.002388244073
 59      -0.000417334617
 60       0.000853089781
 61       0.000290071797
 62       0.000224249442
 63      -0.000232372535
 64      -0.000014341314
 65      -0.000135959734
 66       0.000127360586
 67       0.000036614820
 68       0.000211341936
 69      -0.000200354902
 70      -0.000141308495
 71       0.000321756052
 72      -0.000282780487
 73      -0.000009684294
 74      -0.000015278462
 75       0.000012869740
 76       0.000019834601
 77       0.000012931958
 78       0.000020222244
 79      -0.000009441054
 80      -0.000008692151
 81      -0.000040673474
 82       0.000008641435
 83       0.000019152804
 84      -0.000071231755
 85      -0.000077762202
 86      -0.000038751296
 87       0.000067484749
 88       0.000000618847
 89      -0.000003172791
 90       0.000015567795
 91       0.000020827899
 92       0.000005635073
 93      -0.000000888129
 94       0.000010820760
 95      -0.000001465827
 96       0.000030447471
 97      -0.000006117791
 98      -0.000003380131
 99      -0.000017213452
100       0.000037517312
101       0.000004671249
102      -0.000005016046
103      -0.000002730574
104      -0.000005645649
105      -0.000004470264
106       0.000005652136
107      -0.000008823396
108      -0.000016901850
109       0.000000541102
110       0.000006325126
111      -0.833048124450
112      -0.000540430817
113      -0.013882893590
114       0.002397749633
115      -0.005306694480
116      -0.001447463032
117       0.001440737524
118      -0.001458557216
119       0.000569617685
120      -0.000551302845
121       0.000542269523
122      -0.000947163277
123       0.000922634588
124      -0.000907613746
125      -0.001014267019
126       0.000945211703
127      -0.000910310358
128      -0.000003008446
129      -0.000025362203
130       0.000028244984
131       0.000002268195
132       0.000022227938
133       0.000003488677
134      -0.000068793969
135       0.000066084910
136      -0.000008518942
137       0.000066563311
138       0.000007167202
139      -0.000434611897
140       0.000434382275
141      -0.000006725008
142       0.000435646405
143      -0.000000782397
144       0.000001212562
145      -0.000004324363
146      -0.000003538590
147      -0.000032873273
148      -0.000000446471
149      -0.000001719572
150       0.000083932661
151      -0.000044020266
152       0.000049304358
153      -0.000000290650
154       0.000111461686
155      -0.000055594017
156      -0.000062319456
157       0.000018720663
158      -0.000001613023
159       0.000001601874
160      -0.000000554070
161      -0.000011687594
162       0.000009329261
163       0.000006009640
164      -0.000016502705
165      -0.000000718369
166       0.417277067498
167       0.000273064829
168       0.006955235919
169      -0.001212852382
170       0.002578762447
171      -0.000702246364
172       0.000713314126
173       0.000761575879
174       0.000317654037
175      -0.000301030702
176      -0.000205912923
177      -0.000512524783
178       0.000488620998
179       0.000351821832
180      -0.000628600447
181       0.000566219700
182       0.000205991724
183       0.000018834884
184      -0.000019492084
185       0.000023439671
186      -0.000003122447
187       0.000002316689
188      -0.000038409547
189      -0.000029938579
190       0.000029795828
191       0.000006394989
192      -0.000029856980
193      -0.000037283213
194      -0.000213654007
195       0.000211825973
196       0.000003971998
197      -0.000219074737
198       0.000002744666
199       0.000012560620
200      -0.000015258942
201       0.000002851943
202       0.000016442362
203      -0.000010309761
204      -0.000011792471
205      -0.000070321859
206      -0.000014883371
207       0.000018569754
208      -0.000000644394
209      -0.000053359311
210      -0.000014175865
211      -0.000019076098
212      -0.000006812257
213       0.000005379709
214      -0.000006271499
215       0.000000750887
216       0.000018742114
217       0.000001364998
218      -0.000002140030
219       0.000011428885
220       0.000000706151
 Sym=     1a
 Ene= -1.57477223440869E+01
 Spin= Alpha
 Occup= 2.000000
  1      -0.793997098729
  2      -0.000512534717
  3      -0.013220801821
  4       0.002281959355
  5      -0.005025529292
  6       0.001393303541
  7       0.001376930996
  8       0.001367503424
  9      -0.000503879669
 10      -0.000561505706
 11      -0.000521591529
 12       0.000844794032
 13       0.000930663269
 14       0.000866975738
 15       0.000811118239
 16       0.001013683694
 17       0.000898415299
 18       0.000000264215
 19      -0.000030262885
 20      -0.000018427538
 21      -0.000008251357
 22      -0.000024121821
 23      -0.000003060156
 24      -0.000063140138
 25      -0.000061204139
 26       0.000015446441
 27      -0.000059601748
 28       0.000009961506
 29      -0.000406498711
 30      -0.000414771998
 31       0.000021162312
 32      -0.000421349360
 33       0.000000567215
 34      -0.000003067327
 35       0.000003743311
 36      -0.000007992780
 37      -0.000031125561
 38       0.000000175066
 39       0.000003943262
 40      -0.000075652382
 41       0.000051510396
 42       0.000036316994
 43       0.000000880347
 44       0.000105281628
 45       0.000069140971
 46      -0.000050267223
 47       0.000018721981
 48      -0.000002353220
 49      -0.000003106848
 50       0.000001167761
 51       0.000008238478
 52       0.000003424955
 53      -0.000013587826
 54      -0.000014944716
 55      -0.000002967579
 56       0.267267437345
 57       0.000172934408
 58       0.004450509112
 59      -0.000780041076
 60       0.001648568201
 61       0.000457879837
 62       0.000431230175
 63      -0.000504464623
 64      -0.000187312988
 65      -0.000238276740
 66       0.000107663171
 67       0.000305451339
 68       0.000379052915
 69      -0.000186878784
 70       0.000333509760
 71       0.000529224124
 72      -0.000039299190
 73       0.000019969533
 74      -0.000022441602
 75      -0.000010770471
 76       0.000008260060
 77      -0.000007921724
 78      -0.000038990535
 79      -0.000018633179
 80      -0.000018760592
 81      -0.000016586351
 82       0.000017440265
 83      -0.000039179443
 84      -0.000133019839
 85      -0.000135380502
 86      -0.000016983888
 87       0.000147016952
 88      -0.000002318728
 89      -0.000017109510
 90      -0.000009490539
 91       0.000008579516
 92       0.000010414081
 93       0.000012833512
 94      -0.000008356199
 95       0.000055778926
 96       0.000014985582
 97      -0.000000193181
 98      -0.000001056153
 99      -0.000033990020
100       0.000016091566
101       0.000001713680
102      -0.000002847695
103       0.000007191051
104       0.000005940773
105      -0.000001667383
106      -0.000017846631
107      -0.000007654115
108      -0.000003191041
109       0.000009608572
110       0.000002897470
111       0.015241655217
112       0.000011510607
113       0.000254925854
114      -0.000039256933
115       0.000074885987
116       0.000011636807
117      -0.000069457343
118      -0.000002340333
119      -0.000032927046
120      -0.000067449234
121      -0.000058244551
122       0.000048031469
123       0.000093462119
124       0.000084349445
125       0.000111992309
126       0.000282231390
127       0.000206579811
128      -0.000014428542
129      -0.000016782619
130      -0.000006872496
131      -0.000016851232
132      -0.000012823936
133       0.000030355152
134       0.000000537839
135      -0.000000600740
136       0.000035377182
137      -0.000000893462
138       0.000025172013
139       0.000005523683
140      -0.000007760694
141       0.000029231004
142      -0.000005937271
143      -0.000001712964
144       0.000018642287
145      -0.000002103239
146       0.000018670755
147       0.000000650024
148      -0.000013582990
149      -0.000004634769
150       0.000022578019
151      -0.000011333463
152      -0.000021410287
153      -0.000004868752
154      -0.000001086407
155      -0.000005306061
156       0.000029452412
157      -0.000001814254
158       0.000006516821
159      -0.000004273984
160       0.000002589236
161      -0.000009992074
162      -0.000013997251
163       0.000006842933
164      -0.000002030630
165       0.000005179711
166       0.532978141627
167       0.000346279946
168       0.008878410436
169      -0.001538575094
170       0.003330729711
171      -0.000959504395
172       0.000905116455
173       0.000914489345
174       0.000292681526
175      -0.000396253657
176      -0.000370177563
177      -0.000496588409
178       0.000646684234
179       0.000608595187
180      -0.000372226724
181       0.000768486246
182       0.000666809464
183      -0.000005621780
184      -0.000026620426
185       0.000002731340
186       0.000016735361
187      -0.000021070147
188       0.000012429819
189      -0.000039195493
190       0.000039454872
191      -0.000034047013
192      -0.000040198868
193       0.000007203372
194      -0.000274188804
195       0.000279644220
196      -0.000033222575
197      -0.000274773859
198      -0.000000117501
199       0.000004736931
200       0.000010574611
201      -0.000017948464
202       0.000020899227
203      -0.000000454263
204       0.000008252775
205      -0.000042517431
206      -0.000047460794
207       0.000016417960
208       0.000002594638
209      -0.000069065825
210      -0.000060903202
211      -0.000025221613
212      -0.000013256964
213      -0.000002640662
214       0.000004569486
215      -0.000003559816
216       0.000002362169
217      -0.000004208818
218       0.000017877032
219       0.000009140137
220      -0.000005272966
 Sym=     1a
 Ene= -1.57476949307328E+01
 Spin= Alpha
 Occup= 2.000000
  1      -0.086185173853
  2      -0.000052727264
  3      -0.001431813177
  4       0.000249208923
  5      -0.000584089451
  6       0.000120099542
  7       0.000140966359
  8       0.000189355669
  9      -0.000116873473
 10      -0.000080945118
 11       0.000017152244
 12       0.000186118416
 13       0.000133473941
 14      -0.000012444091
 15       0.000316778365
 16       0.000179938971
 17      -0.000182306372
 18      -0.000021455626
 19      -0.000006897425
 20      -0.000015505209
 21       0.000005989365
 22       0.000015768335
 23       0.000044072807
 24      -0.000007361224
 25      -0.000006930078
 26      -0.000012557460
 27      -0.000007793297
 28       0.000042860281
 29      -0.000043530609
 30      -0.000040071534
 31      -0.000010856837
 32      -0.000057552249
 33       0.000002638900
 34      -0.000011443399
 35      -0.000016996642
 36       0.000006281087
 37      -0.000003894672
 38       0.000010804902
 39      -0.000013595354
 40      -0.000041318958
 41      -0.000009326658
 42       0.000000284635
 43      -0.000000816784
 44       0.000012804513
 45      -0.000013035200
 46       0.000000535400
 47      -0.000001985963
 48       0.000006781690
 49       0.000008011172
 50      -0.000001779626
 51       0.000017336525
 52      -0.000000420536
 53       0.000008247725
 54      -0.000006665241
 55       0.000001729291
 56       0.817582112719
 57       0.000528123646
 58       0.013605487382
 59      -0.002347184083
 60       0.005093296483
 61       0.001406883612
 62       0.001430164208
 63      -0.001418585133
 64      -0.000551017066
 65      -0.000515342557
 66       0.000560625661
 67       0.000910244007
 68       0.000858548404
 69      -0.000923834426
 70       0.000956984826
 71       0.000820221470
 72      -0.000989884707
 73      -0.000004804737
 74      -0.000019733354
 75      -0.000028374287
 76      -0.000006700652
 77       0.000029262518
 78       0.000014344074
 79      -0.000059500219
 80      -0.000060065021
 81       0.000014285267
 82       0.000057297380
 83       0.000011088288
 84      -0.000426209704
 85      -0.000423859966
 86       0.000010044433
 87       0.000421735931
 88      -0.000000516734
 89       0.000005517766
 90      -0.000000144143
 91      -0.000006395830
 92       0.000031688134
 93      -0.000005688088
 94       0.000002935745
 95       0.000068814939
 96       0.000044512455
 97       0.000054950245
 98       0.000000820303
 99      -0.000105466458
100       0.000057638618
101      -0.000069053632
102      -0.000019818171
103      -0.000005361293
104      -0.000004448687
105       0.000001567401
106      -0.000005437692
107       0.000013426669
108      -0.000005719002
109       0.000014695097
110      -0.000001463390
111      -0.159119551926
112      -0.000100863293
113      -0.002647176603
114       0.000449826097
115      -0.001051035000
116      -0.000317613207
117       0.000266341294
118      -0.000244914166
119       0.000035849134
120      -0.000121942689
121       0.000166168178
122      -0.000079582981
123       0.000204587662
124      -0.000268973179
125       0.000086976693
126       0.000244807021
127      -0.000409616911
128       0.000016750830
129      -0.000007791654
130      -0.000012724410
131      -0.000014542770
132       0.000017840527
133      -0.000035011467
134      -0.000014731992
135       0.000014114344
136       0.000029599478
137       0.000013919431
138      -0.000029610924
139      -0.000085334508
140       0.000088824907
141       0.000025714290
142       0.000080491302
143       0.000001629707
144      -0.000004727817
145       0.000018304625
146       0.000015219349
147      -0.000006178674
148       0.000006228282
149       0.000013736080
150      -0.000010228034
151      -0.000028265988
152       0.000001890477
153      -0.000003113635
154       0.000022389762
155      -0.000038055441
156      -0.000008745497
157       0.000006236168
158      -0.000005524687
159       0.000007671797
160       0.000003011769
161       0.000010277619
162      -0.000003366760
163       0.000014780087
164      -0.000000079562
165       0.000004384879
166      -0.533831971672
167      -0.000342598079
168      -0.008883720614
169       0.001522423195
170      -0.003410979630
171       0.000912124177
172      -0.000962294245
173      -0.000905749852
174      -0.000383723782
175       0.000297109490
176       0.000390853672
177       0.000638155389
178      -0.000512054147
179      -0.000648188140
180       0.000718071003
181      -0.000385033309
182      -0.000743810376
183       0.000010525760
184       0.000001602106
185      -0.000022105226
186       0.000014988272
187       0.000023918802
188      -0.000022021801
189       0.000042287081
190      -0.000042863299
191      -0.000031392779
192       0.000042786563
193      -0.000016154497
194       0.000283630372
195      -0.000278990871
196      -0.000026507675
197       0.000277594968
198       0.000000564113
199       0.000013269806
200       0.000000495120
201      -0.000015087214
202      -0.000020751939
203      -0.000009971938
204      -0.000002587256
205       0.000035995572
206       0.000021227617
207      -0.000046733782
208       0.000002594928
209       0.000071562590
210       0.000031266843
211       0.000061080989
212       0.000013833482
213       0.000006651844
214      -0.000004090436
215      -0.000003339390
216       0.000001299142
217      -0.000017003752
218       0.000001225195
219      -0.000008487872
220      -0.000004512452
 Sym=     1a
 Ene= -1.65179347829732E+00
 Spin= Alpha
 Occup= 2.000000
  1      -0.005385615057
  2       0.141090190650
  3       0.107955494560
  4       0.198231070930
  5       0.042016154114
  6      -0.017922088055
  7      -0.017904305934
  8      -0.017931036995
  9      -0.034898261780
 10      -0.034844710479
 11      -0.034934455117
 12      -0.040540780674
 13      -0.040564161345
 14      -0.040504445600
 15      -0.006353420271
 16      -0.006383216743
 17      -0.006322054366
 18       0.000000101522
 19       0.001351645141
 20       0.001335289752
 21       0.000001034631
 22       0.001319935592
 23      -0.000019777052
 24       0.006762356662
 25       0.006687415265
 26      -0.000007620641
 27       0.006614349427
 28      -0.000085910321
 29       0.008290434284
 30       0.008272530103
 31      -0.000047132307
 32       0.008256620211
 33       0.000189893995
 34      -0.000127649043
 35      -0.000111859572
 36      -0.000012025653
 37      -0.000117533420
 38      -0.000126585158
 39       0.000125841944
 40       0.002485337253