
                                 *****************
                                 * O   R   C   A *
                                 *****************

           --- An Ab Initio, DFT and Semiempirical electronic structure package ---

                  #######################################################
                  #                        -***-                        #
                  #  Department of molecular theory and spectroscopy    #
                  #              Directorship: Frank Neese              #
                  # Max Planck Institute for Chemical Energy Conversion #
                  #                  D-45470 Muelheim/Ruhr              #
                  #                       Germany                       #
                  #                                                     #
                  #                  All rights reserved                #
                  #                        -***-                        #
                  #######################################################


                         Program Version 3.0.3 - RELEASE   -


 With contributions from (in alphabetic order):
   Ute Becker             : Parallelization
   Dmytro Bykov           : SCF Hessian
   Dmitry Ganyushin       : Spin-Orbit,Spin-Spin,Magnetic field MRCI
   Andreas Hansen         : Spin unrestricted coupled pair/coupled cluster methods
   Dimitrios Liakos       : Extrapolation schemes; parallel MDCI
   Robert Izsak           : Overlap fitted RIJCOSX, COSX-SCS-MP3
   Christian Kollmar      : KDIIS, OOCD, Brueckner-CCSD(T), CCSD density
   Simone Kossmann        : Meta GGA functionals, TD-DFT gradient, OOMP2, MP2 Hessian
   Taras Petrenko         : DFT Hessian,TD-DFT gradient, ASA and ECA modules, normal mode analysis, Resonance Raman, ABS, FL, XAS/XES, NRVS
   Christoph Reimann      : Effective Core Potentials
   Michael Roemelt        : Restricted open shell CIS
   Christoph Riplinger    : Improved optimizer, TS searches, QM/MM, DLPNO-CCSD
   Barbara Sandhoefer     : DKH picture change effects
   Igor Schapiro          : Molecular dynamics
   Kantharuban Sivalingam : CASSCF convergence, NEVPT2
   Boris Wezisla          : Elementary symmetry handling
   Frank Wennmohs         : Technical directorship


 We gratefully acknowledge several colleagues who have allowed us to
 interface, adapt or use parts of their codes:
   Stefan Grimme, W. Hujo, H. Kruse, T. Risthaus : VdW corrections, initial TS optimization,
                                                   DFT functionals, gCP
   Ed Valeev                                     : LibInt (2-el integral package), F12 methods
   Garnet Chan, S. Sharma, R. Olivares           : DMRG
   Ulf Ekstrom                                   : XCFun DFT Library
   Mihaly Kallay                                 : mrcc  (arbitrary order and MRCC methods)
   Andreas Klamt, Michael Diedenhofen            : otool_cosmo (COSMO solvation model)
   Frank Weinhold                                : gennbo (NPA and NBO analysis)
   Christopher J. Cramer and Donald G. Truhlar   : smd solvation model


 Your calculation uses the libint2 library for the computation of 2-el integrals
 For citations please refer to: http://libint.valeyev.net

 This ORCA versions uses:
   CBLAS   interface :  Fast vector & matrix operations
   LAPACKE interface :  Fast linear algebra routines
   SCALAPACK package :  Parallel linear algebra routines


Your calculation utilizes the basis: Ahlrichs-VDZ
Cite in your paper:
H - Kr: A. Schaefer, H. Horn and R. Ahlrichs, J. Chem. Phys. 97, 2571 (1992).

Your calculation utilizes the basis: Ahlrichs SVPalls1+f
Cite in your paper:
Rb - Xe: A. Schaefer, C. Huber and R. Ahlrichs, J. Chem. Phys. 100, 5829 (1994).

================================================================================
                                        WARNINGS
                       Please study these warnings very carefully!
================================================================================
Now building the actual basis set

WARNING: your system is open-shell and RHF/RKS was chosen
  ===> : WILL SWITCH to UHF/UKS



INFO   : the flag for use of LIBINT has been found!

================================================================================
                                       INPUT FILE
================================================================================
NAME = ./N4.inp
|  1> # ================================================================
|  2> # Orca input file for QMC test
|  3> # ================================================================
|  4> ! RHF def2-SVP VeryTightSCF Bohrs
|  5> ! PAL2
|  6> 
|  7> * xyz 1 2
|  8>  N        1.2141712962       -0.0000000000        1.1929119035
|  9>  N       -1.3902703010        0.8023367264        0.5821232275
| 10>  N        0.5808227702        0.8023367264       -1.3773978299
| 11>  N       -0.4047237654       -1.6046734527       -0.3976373012
| 12> *
| 13> 
| 14>                          ****END OF INPUT****
================================================================================

                       ****************************
                       * Single Point Calculation *
                       ****************************

---------------------------------
CARTESIAN COORDINATES (ANGSTROEM)
---------------------------------
  N      0.642512   -0.000000    0.631262
  N     -0.735699    0.424578    0.308046
  N      0.307358    0.424578   -0.728888
  N     -0.214171   -0.849157   -0.210421

----------------------------
CARTESIAN COORDINATES (A.U.)
----------------------------
  NO LB      ZA    FRAG    MASS        X           Y           Z
   0 N     7.0000    0    14.007          1.214171296200000         -0.000000000000000          1.192911903500000
   1 N     7.0000    0    14.007         -1.390270301000000          0.802336726400000          0.582123227500000
   2 N     7.0000    0    14.007          0.580822770200000          0.802336726400000         -1.377397829900000
   3 N     7.0000    0    14.007         -0.404723765400000         -1.604673452700000         -0.397637301200000

--------------------------------
INTERNAL COORDINATES (ANGSTROEM)
--------------------------------
 N      0   0   0   0.000000     0.000     0.000
 N      1   0   0   1.477904     0.000     0.000
 N      1   2   0   1.463763    59.995     0.000
 N      2   1   3   1.470782    59.843    70.788

---------------------------
INTERNAL COORDINATES (A.U.)
---------------------------
 N      0   0   0   0.000000     0.000     0.000
 N      1   0   0   2.792834     0.000     0.000
 N      1   2   0   2.766110    59.995     0.000
 N      2   1   3   2.779376    59.843    70.788

---------------------
BASIS SET INFORMATION
---------------------
There are 1 groups of distinct atoms

 Group   1 Type N   : 7s4p1d contracted to 3s2p1d pattern {511/31/1}

Atom   0N    basis set group =>   1
Atom   1N    basis set group =>   1
Atom   2N    basis set group =>   1
Atom   3N    basis set group =>   1


           ************************************************************
           *        Program running with 2 parallel MPI-processes     *
           *              working on a common directory               *
           ************************************************************
------------------------------------------------------------------------------
                           ORCA GTO INTEGRAL CALCULATION
------------------------------------------------------------------------------

                         BASIS SET STATISTICS AND STARTUP INFO

 # of primitive gaussian shells          ...   48
 # of primitive gaussian functions       ...   96
 # of contracted shell                   ...   24
 # of contracted basis functions         ...   56
 Highest angular momentum                ...    2
 Maximum contraction depth               ...    5
 Integral package used                   ... LIBINT
 Integral threshhold            Thresh   ...  1.000e-12
 Primitive cut-off              TCut     ...  1.000e-14


                              INTEGRAL EVALUATION

 One electron integrals                  ... done
 Pre-screening matrix                    ... done
 Shell pair data                         ... done (   0.003 sec)

           ************************************************************
           *              Shut down parallel processing               *
           ************************************************************


           ************************************************************
           *        Program running with 2 parallel MPI-processes     *
           *              working on a common directory               *
           ************************************************************
-------------------------------------------------------------------------------
                                 ORCA SCF
-------------------------------------------------------------------------------

------------
SCF SETTINGS
------------
Hamiltonian:
 Ab initio Hamiltonian  Method          .... Hartree-Fock(GTOs)


General Settings:
 Integral files         IntName         .... ./N4
 Hartree-Fock type      HFTyp           .... UHF
 Total Charge           Charge          ....    1
 Multiplicity           Mult            ....    2
 Number of Electrons    NEL             ....   27
 Basis Dimension        Dim             ....   56
 Nuclear Repulsion      ENuc            ....    105.7779183143 Eh

Convergence Acceleration:
 DIIS                   CNVDIIS         .... on
   Start iteration      DIISMaxIt       ....    12
   Startup error        DIISStart       ....  0.200000
   # of expansion vecs  DIISMaxEq       ....     5
   Bias factor          DIISBfac        ....   1.050
   Max. coefficient     DIISMaxC        ....  10.000
 Newton-Raphson         CNVNR           .... off
 SOSCF                  CNVSOSCF        .... off
 Level Shifting         CNVShift        .... on
   Level shift para.    LevelShift      ....    0.2500
   Turn off err/grad.   ShiftErr        ....    0.0010
 Zerner damping         CNVZerner       .... off
 Static damping         CNVDamp         .... on
   Fraction old density DampFac         ....    0.7000
   Max. Damping (<1)    DampMax         ....    0.9800
   Min. Damping (>=0)   DampMin         ....    0.0000
   Turn off err/grad.   DampErr         ....    0.1000
 Fernandez-Rico         CNVRico         .... off

SCF Procedure:
 Maximum # iterations   MaxIter         ....   125
 SCF integral mode      SCFMode         .... Direct
   Integral package                     .... LIBINT
 Reset frequeny         DirectResetFreq ....    20
 Integral Threshold     Thresh          ....  1.000e-12 Eh
 Primitive CutOff       TCut            ....  1.000e-14 Eh

Convergence Tolerance:
 Convergence Check Mode ConvCheckMode   .... Total+1el-Energy
 Energy Change          TolE            ....  1.000e-09 Eh
 1-El. energy change                    ....  1.000e-06 Eh
 DIIS Error             TolErr          ....  1.000e-08


Diagonalization of the overlap matrix:
Smallest eigenvalue                        ... 7.343e-03
Time for diagonalization                   ...    0.147 sec
Threshold for overlap eigenvalues          ... 1.000e-08
Number of eigenvalues below threshold      ... 0
Time for construction of square roots      ...    0.039 sec
Total time needed                          ...    0.186 sec

-------------------
DFT GRID GENERATION
-------------------

General Integration Accuracy     IntAcc      ...  4.340
Radial Grid Type                 RadialGrid  ... Gauss-Chebyshev
Angular Grid (max. acc.)         AngularGrid ... Lebedev-110
Angular grid pruning method      GridPruning ... 3 (G Style)
Weight generation scheme         WeightScheme... Becke
Basis function cutoff            BFCut       ...    1.0000e-12
Integration weight cutoff        WCut        ...    1.0000e-14
Grids for H and He will be reduced by one unit

# of grid points (after initial pruning)     ...   6808 (   0.0 sec)
# of grid points (after weights+screening)   ...   6692 (   0.2 sec)
nearest neighbour list constructed           ...    0.0 sec
Grid point re-assignment to atoms done       ...    0.0 sec
Grid point division into batches done        ...    0.0 sec
Reduced shell lists constructed in    0.1 sec

Total number of grid points                  ...     6692
Total number of batches                      ...      108
Average number of points per batch           ...       61
Average number of grid points per atom       ...     1673
Average number of shells per batch           ...    20.35 (84.77%)
Average number of basis functions per batch  ...    49.33 (88.08%)
Average number of large shells per batch     ...    18.78 (92.31%)
Average number of large basis fcns per batch ...    46.09 (93.44%)
Maximum spatial batch extension              ...  17.31, 18.36, 17.32 au
Average spatial batch extension              ...   2.19,  2.37,  2.16 au

Time for grid setup =    0.434 sec

------------------------------
INITIAL GUESS: MODEL POTENTIAL
------------------------------
Loading Hartree-Fock densities                     ... done
Calculating cut-offs                               ... done
Setting up the integral package                    ... done
Initializing the effective Hamiltonian             ... done
Starting the Coulomb interaction                   ... done (   0.0 sec)
Reading the grid                                   ... done
Mapping shells                                     ... done
Starting the XC term evaluation                    ... done (   0.1 sec)
Transforming the Hamiltonian                       ... done (   0.0 sec)
Diagonalizing the Hamiltonian                      ... done (   0.0 sec)
Back transforming the eigenvectors                 ... done (   0.0 sec)
Now organizing SCF variables                       ... done
                      ------------------
                      INITIAL GUESS DONE (   1.0 sec)
                      ------------------
--------------
SCF ITERATIONS
--------------
ITER       Energy         Delta-E        Max-DP      RMS-DP      [F,P]     Damp
               ***  Starting incremental Fock matrix formation  ***
  0   -216.7282390089   0.000000000000 0.01799261  0.00121368  0.1247034 0.7000
  1   -216.7540410060  -0.025801997080 0.01448928  0.00100584  0.0846192 0.7000
                               ***Turning on DIIS***
  2   -216.7713632574  -0.017322251460 0.03373092  0.00247687  0.0549162 0.0000
  3   -216.8919141001  -0.120550842672 0.00530870  0.00051031  0.0129278 0.0000
  4   -216.8158809563   0.076033143829 0.00379871  0.00034423  0.0035188 0.0000
  5   -216.8126082981   0.003272658194 0.00263272  0.00019832  0.0020401 0.0000
  6   -216.8127407784  -0.000132480290 0.00187911  0.00012384  0.0013873 0.0000
  7   -216.8135357811  -0.000795002751 0.00148538  0.00011064  0.0010686 0.0000
  8   -216.8137420189  -0.000206237792 0.00163542  0.00013056  0.0007966 0.0000
  9   -216.8136931552   0.000048863718 0.00182199  0.00012239  0.0005629 0.0000
 10   -216.8138086693  -0.000115514119 0.00150262  0.00007735  0.0004013 0.0000
 11   -216.8139910578  -0.000182388508 0.00069887  0.00003601  0.0003545 0.0000
 12   -216.8140442459  -0.000053188120 0.00035698  0.00001849  0.0003743 0.0000
 13   -216.8140645351  -0.000020289161 0.00007255  0.00000443  0.0003600 0.0000
 14   -216.8140764992  -0.000011964106 0.00006827  0.00000472  0.0003655 0.0000
 15   -216.8140435983   0.000032900931 0.00001952  0.00000131  0.0003663 0.0000
 16   -216.8140482545  -0.000004656213 0.00036000  0.00001865  0.0003651 0.0000
 17   -216.8140601103  -0.000011855872 0.00012400  0.00000641  0.0003685 0.0000
 18   -216.8140700240  -0.000009913608 0.00006880  0.00000400  0.0003710 0.0000
 19   -216.8140744206  -0.000004396639 0.00008823  0.00000514  0.0003703 0.0000
               *** Restarting incremental Fock matrix formation ***
                                   *** Resetting DIIS ***
 20   -216.8140598865   0.000014534065 0.00047107  0.00002521  0.0003719 0.0000
 21   -216.8140721790  -0.000012292495 0.00034004  0.00001823  0.0003763 0.0000
 22   -216.8140915683  -0.000019389281 0.00002137  0.00000112  0.0003789 0.0000
 23   -216.8140901859   0.000001382380 0.00000038  0.00000002  0.0003788 0.0000
 24   -216.8140901950  -0.000000009056 0.00000039  0.00000002  0.0003788 0.0000
 25   -216.8140748923   0.000015302663 0.00041771  0.00002247  0.0003788 0.0000
 26   -216.8141008763  -0.000025983950 0.00004611  0.00000249  0.0003820 0.0000
 27   -216.8141012448  -0.000000368483 0.00006020  0.00000326  0.0003824 0.0000
 28   -216.8140995766   0.000001668193 0.00011079  0.00000600  0.0003829 0.0000
 29   -216.8140989702   0.000000606408 0.00015965  0.00000864  0.0003838 0.0000
 30   -216.8140975524   0.000001417748 0.00025950  0.00001405  0.0003850 0.0000
 31   -216.8141194862  -0.000021933747 0.00006334  0.00000344  0.0003870 0.0000
 32   -216.8141038069   0.000015679202 0.00021562  0.00001170  0.0003865 0.0000
 33   -216.8141125888  -0.000008781813 0.00012874  0.00000699  0.0003883 0.0000
 34   -216.8141133034  -0.000000714661 0.00016644  0.00000904  0.0003893 0.0000
 35   -216.8141191711  -0.000005867694 0.00012356  0.00000671  0.0003906 0.0000
 36   -216.8141250482  -0.000005877061 0.00006020  0.00000328  0.0003915 0.0000
 37   -216.8141157365   0.000009311671 0.00024667  0.00001343  0.0003920 0.0000
 38   -216.8141318279  -0.000016091420 0.00006051  0.00000329  0.0003941 0.0000
 39   -216.8141246818   0.000007146098 0.00020279  0.00001104  0.0003946 0.0000
               *** Restarting incremental Fock matrix formation ***
                                   *** Resetting DIIS ***
 40   -216.8141095451   0.000015136749 0.00050426  0.00002748  0.0003962 0.0000
 41   -216.8141290775  -0.000019532392 0.00035121  0.00001916  0.0004004 0.0000
 42   -216.8141590283  -0.000029950814 0.00001762  0.00000096  0.0004034 0.0000
 43   -216.8141570633   0.000001965008 0.00000016  0.00000001  0.0004034 0.0000
 44   -216.8141570686  -0.000000005346 0.00000017  0.00000001  0.0004034 0.0000
 45   -216.8141278814   0.000029187243 0.00045826  0.00002501  0.0004034 0.0000
 46   -216.8141685729  -0.000040691565 0.00002714  0.00000148  0.0004072 0.0000
 47   -216.8141643854   0.000004187592 0.00009648  0.00000527  0.0004075 0.0000
 48   -216.8141654250  -0.000001039692 0.00009951  0.00000543  0.0004083 0.0000
 49   -216.8141610456   0.000004379488 0.00018415  0.00001006  0.0004092 0.0000
 50   -216.8141587316   0.000002313986 0.00027463  0.00001500  0.0004109 0.0000
 51   -216.8141897945  -0.000031062960 0.00007577  0.00000414  0.0004132 0.0000
 52   -216.8141652529   0.000024541672 0.00024997  0.00001365  0.0004125 0.0000
 53   -216.8141793098  -0.000014056950 0.00012406  0.00000678  0.0004147 0.0000
 54   -216.8141765188   0.000002791048 0.00020048  0.00001095  0.0004158 0.0000
 55   -216.8141870537  -0.000010534934 0.00011722  0.00000640  0.0004175 0.0000
 56   -216.8141920559  -0.000005002197 0.00008186  0.00000447  0.0004185 0.0000
 57   -216.8141803382   0.000011717676 0.00026486  0.00001447  0.0004193 0.0000
 58   -216.8142019938  -0.000021655613 0.00005919  0.00000323  0.0004216 0.0000
 59   -216.8141900118   0.000011982060 0.00023423  0.00001280  0.0004221 0.0000
               *** Restarting incremental Fock matrix formation ***
                                   *** Resetting DIIS ***
 60   -216.8141692290   0.000020782779 0.00055419  0.00003030  0.0004241 0.0000
 61   -216.8141945737  -0.000025344753 0.00038786  0.00002121  0.0004289 0.0000
 62   -216.8142351460  -0.000040572251 0.00001870  0.00000102  0.0004323 0.0000
 63   -216.8142326100   0.000002535989 0.00000017  0.00000001  0.0004322 0.0000
 64   -216.8142326168  -0.000000006757 0.00000018  0.00000001  0.0004322 0.0000
 65   -216.8141921912   0.000040425572 0.00050306  0.00002752  0.0004322 0.0000
 66   -216.8142457752  -0.000053584012 0.00003555  0.00000194  0.0004364 0.0000
 67   -216.8142409956   0.000004779632 0.00010094  0.00000552  0.0004368 0.0000
 68   -216.8142412867  -0.000000291116 0.00011401  0.00000624  0.0004377 0.0000
 69   -216.8142356989   0.000005587770 0.00020069  0.00001098  0.0004387 0.0000
 70   -216.8142315258   0.000004173139 0.00030418  0.00001665  0.0004404 0.0000
 71   -216.8142730067  -0.000041480939 0.00007951  0.00000436  0.0004433 0.0000
 72   -216.8142402827   0.000032724041 0.00027216  0.00001491  0.0004422 0.0000
 73   -216.8142581550  -0.000017872349 0.00013989  0.00000766  0.0004461 0.0000
 74   -216.8142545388   0.000003616224 0.00021825  0.00001196  0.0004481 0.0000
 75   -216.8142675197  -0.000012980922 0.00013441  0.00000737  0.0004512 0.0000
 76   -216.8142748328  -0.000007313086 0.00008793  0.00000482  0.0004531 0.0000
 77   -216.8142583371   0.000016495743 0.00029131  0.00001597  0.0004544 0.0000
 78   -216.8142864366  -0.000028099580 0.00007061  0.00000387  0.0004586 0.0000
 79   -216.8142710110   0.000015425640 0.00025312  0.00001388  0.0004596 0.0000
               *** Restarting incremental Fock matrix formation ***
                                   *** Resetting DIIS ***
 80   -216.8142417529   0.000029258146 0.00060861  0.00003341  0.0004632 0.0000
 81   -216.8142740983  -0.000032345413 0.00042898  0.00002357  0.0004718 0.0000
 82   -216.8143277231  -0.000053624806 0.00001366  0.00000075  0.0004778 0.0000
 83   -216.8143252445   0.000002478564 0.00000008  0.00000000  0.0004776 0.0000
 84   -216.8143252498  -0.000000005274 0.00000008  0.00000000  0.0004776 0.0000
 85   -216.8142712070   0.000054042759 0.00054523  0.00002998  0.0004776 0.0000
 86   -216.8143384424  -0.000067235407 0.00006101  0.00000336  0.0004853 0.0000
 87   -216.8143365666   0.000001875801 0.00009349  0.00000515  0.0004862 0.0000
 88   -216.8143331577   0.000003408963 0.00013862  0.00000764  0.0004875 0.0000
 89   -216.8143279108   0.000005246828 0.00021290  0.00001173  0.0004894 0.0000
 90   -216.8143202749   0.000007635994 0.00033781  0.00001862  0.0004924 0.0000
 91   -216.8143743088  -0.000054033963 0.00007376  0.00000407  0.0004970 0.0000
 92   -216.8143332855   0.000041023283 0.00028777  0.00001588  0.0004960 0.0000
 93   -216.8143542355  -0.000020949964 0.00016215  0.00000895  0.0005000 0.0000
 94   -216.8143509136   0.000003321868 0.00023227  0.00001283  0.0005023 0.0000
 95   -216.8143651694  -0.000014255788 0.00016149  0.00000892  0.0005055 0.0000
 96   -216.8143771804  -0.000012011001 0.00009138  0.00000505  0.0005077 0.0000
 97   -216.8143543217   0.000022858727 0.00031633  0.00001750  0.0005089 0.0000
 98   -216.8143891867  -0.000034865041 0.00009061  0.00000501  0.0005133 0.0000
 99   -216.8143714509   0.000017735819 0.00026587  0.00001472  0.0005145 0.0000
               *** Restarting incremental Fock matrix formation ***
                                   *** Resetting DIIS ***
100   -216.8143303081   0.000041142776 0.00066382  0.00003681  0.0005181 0.0000
101   -216.8143709519  -0.000040643797 0.00047346  0.00002632  0.0005272 0.0000
102   -216.8144407090  -0.000069757105 0.00000250  0.00000014  0.0005336 0.0000
103   -216.8144393233   0.000001385747 0.00000000  0.00000000  0.0005336 0.0000
                 **** Energy Check signals convergence ****

               *****************************************************
               *                     SUCCESS                       *
               *           SCF CONVERGED AFTER 104 CYCLES          *
               *****************************************************


----------------
TOTAL SCF ENERGY
----------------

Total Energy       :         -216.81443932 Eh           -5899.82084 eV

Components:
Nuclear Repulsion  :          105.77791831 Eh            2878.36349 eV
Electronic Energy  :         -322.59235764 Eh           -8778.18433 eV

One Electron Energy:         -493.66003593 Eh          -13433.17251 eV
Two Electron Energy:          171.06767829 Eh            4654.98818 eV

Virial components:
Potential Energy   :         -433.51360279 Eh          -11796.50485 eV
Kinetic Energy     :          216.69916347 Eh            5896.68402 eV
Virial Ratio       :            2.00053196


---------------
SCF CONVERGENCE
---------------

  Last Energy change         ...   -2.8109e-10  Tolerance :   1.0000e-09
  Last MAX-Density change    ...    5.5665e-10  Tolerance :   1.0000e-08
  Last RMS-Density change    ...    3.1330e-11  Tolerance :   1.0000e-09
  Last DIIS Error            ...    5.3355e-04  Tolerance :   1.0000e-08

             **** THE GBW FILE WAS UPDATED (./N4.gbw) ****
             **** DENSITY FILE WAS UPDATED (./N4.scfp.tmp) ****
             **** ENERGY FILE WAS UPDATED (./N4.en.tmp) ****
----------------------
UHF SPIN CONTAMINATION
----------------------

Expectation value of <S**2>     :     0.784446
Ideal value S*(S+1) for S=0.5   :     0.750000
Deviation                       :     0.034446

----------------
ORBITAL ENERGIES
----------------
                 SPIN UP ORBITALS
  NO   OCC          E(Eh)            E(eV) 
   0   1.0000     -16.127124      -438.8414 
   1   1.0000     -16.126617      -438.8276 
   2   1.0000     -16.118270      -438.6004 
   3   1.0000     -16.117806      -438.5878 
   4   1.0000      -2.050062       -55.7850 
   5   1.0000      -1.423190       -38.7270 
   6   1.0000      -1.415250       -38.5109 
   7   1.0000      -1.398706       -38.0607 
   8   1.0000      -1.027296       -27.9541 
   9   1.0000      -0.936702       -25.4890 
  10   1.0000      -0.924926       -25.1685 
  11   1.0000      -0.923511       -25.1300 
  12   1.0000      -0.914762       -24.8919 
  13   1.0000      -0.895586       -24.3701 
  14   0.0000      -0.185341        -5.0434 
  15   0.0000      -0.162842        -4.4312 
  16   0.0000      -0.148892        -4.0516 
  17   0.0000      -0.055511        -1.5105 
  18   0.0000      -0.051731        -1.4077 
  19   0.0000      -0.043002        -1.1701 
  20   0.0000       0.439586        11.9618 
  21   0.0000       0.552936        15.0462 
  22   0.0000       0.560080        15.2406 
  23   0.0000       0.568826        15.4786 
  24   0.0000       0.604600        16.4520 
  25   0.0000       0.619231        16.8501 
  26   0.0000       0.619334        16.8529 
  27   0.0000       0.622789        16.9470 
  28   0.0000       0.625530        17.0215 
  29   0.0000       0.760544        20.6955 
  30   0.0000       0.770810        20.9748 
  31   0.0000       0.776232        21.1223 
  32   0.0000       0.787229        21.4216 
  33   0.0000       0.915380        24.9088 
  34   0.0000       0.925824        25.1930 
  35   0.0000       0.937601        25.5134 
  36   0.0000       1.524774        41.4912 
  37   0.0000       1.529233        41.6125 
  38   0.0000       1.537697        41.8429 
  39   0.0000       1.757310        47.8188 
  40   0.0000       1.773324        48.2546 
  41   0.0000       2.031731        55.2862 
  42   0.0000       2.188833        59.5612 
  43   0.0000       2.196857        59.7795 
  44   0.0000       2.200488        59.8783 
  45   0.0000       2.290385        62.3246 
  46   0.0000       2.293567        62.4111 
  47   0.0000       2.299368        62.5690 
  48   0.0000       2.546234        69.2866 
  49   0.0000       2.549691        69.3806 
  50   0.0000       2.998173        81.5844 
  51   0.0000       2.999966        81.6332 
  52   0.0000       3.006747        81.8177 
  53   0.0000       3.183857        86.6372 
  54   0.0000       3.204123        87.1886 
  55   0.0000       3.213459        87.4427 

                 SPIN DOWN ORBITALS
  NO   OCC          E(Eh)            E(eV) 
   0   1.0000     -16.116330      -438.5476 
   1   1.0000     -16.116110      -438.5416 
   2   1.0000     -16.111395      -438.4133 
   3   1.0000     -16.111150      -438.4067 
   4   1.0000      -2.018986       -54.9394 
   5   1.0000      -1.376552       -37.4579 
   6   1.0000      -1.350133       -36.7390 
   7   1.0000      -1.324697       -36.0468 
   8   1.0000      -1.017317       -27.6826 
   9   1.0000      -0.910944       -24.7881 
  10   1.0000      -0.895127       -24.3577 
  11   1.0000      -0.891701       -24.2644 
  12   1.0000      -0.884428       -24.0665 
  13   0.0000      -0.456113       -12.4115 
  14   0.0000      -0.143735        -3.9112 
  15   0.0000      -0.104847        -2.8530 
  16   0.0000      -0.060102        -1.6355 
  17   0.0000      -0.050683        -1.3791 
  18   0.0000      -0.032813        -0.8929 
  19   0.0000      -0.019095        -0.5196 
  20   0.0000       0.447016        12.1639 
  21   0.0000       0.562594        15.3090 
  22   0.0000       0.571690        15.5565 
  23   0.0000       0.579334        15.7645 
  24   0.0000       0.625591        17.0232 
  25   0.0000       0.628146        17.0927 
  26   0.0000       0.636321        17.3152 
  27   0.0000       0.644177        17.5290 
  28   0.0000       0.659612        17.9490 
  29   0.0000       0.778504        21.1842 
  30   0.0000       0.787661        21.4333 
  31   0.0000       0.793281        21.5863 
  32   0.0000       0.798518        21.7288 
  33   0.0000       0.932003        25.3611 
  34   0.0000       0.936403        25.4808 
  35   0.0000       0.941456        25.6183 
  36   0.0000       1.543840        42.0100 
  37   0.0000       1.558756        42.4159 
  38   0.0000       1.572046        42.7775 
  39   0.0000       1.793291        48.7979 
  40   0.0000       1.795198        48.8498 
  41   0.0000       2.044065        55.6218 
  42   0.0000       2.212192        60.1968 
  43   0.0000       2.216758        60.3211 
  44   0.0000       2.221078        60.4386 
  45   0.0000       2.312344        62.9221 
  46   0.0000       2.322555        63.1999 
  47   0.0000       2.332827        63.4795 
  48   0.0000       2.560050        69.6625 
  49   0.0000       2.579803        70.2000 
  50   0.0000       3.004782        81.7643 
  51   0.0000       3.010785        81.9276 
  52   0.0000       3.014145        82.0191 
  53   0.0000       3.207324        87.2757 
  54   0.0000       3.214787        87.4788 
  55   0.0000       3.219888        87.6176 

                    ********************************
                    * MULLIKEN POPULATION ANALYSIS *
                    ********************************

--------------------------------------------
MULLIKEN ATOMIC CHARGES AND SPIN POPULATIONS
--------------------------------------------
   0 N :    0.259793    0.309845
   1 N :    0.260576    0.318817
   2 N :    0.239624    0.182360
   3 N :    0.240007    0.188978
Sum of atomic charges         :    1.0000000
Sum of atomic spin populations:    1.0000000

-----------------------------------------------------
MULLIKEN REDUCED ORBITAL CHARGES AND SPIN POPULATIONS
-----------------------------------------------------
CHARGE
  0 N s       :     3.926315  s :     3.926315
      pz      :     0.962960  p :     2.741301
      px      :     0.934227
      py      :     0.844114
      dz2     :     0.020007  d :     0.072591
      dxz     :     0.013425
      dyz     :     0.015050
      dx2y2   :     0.010935
      dxy     :     0.013174
  1 N s       :     3.927827  s :     3.927827
      pz      :     0.736687  p :     2.739631
      px      :     0.985180
      py      :     1.017764
      dz2     :     0.011741  d :     0.071966
      dxz     :     0.016133
      dyz     :     0.010125
      dx2y2   :     0.019936
      dxy     :     0.014031
  2 N s       :     3.925723  s :     3.925723
      pz      :     0.943223  p :     2.760495
      px      :     0.973732
      py      :     0.843540
      dz2     :     0.020315  d :     0.074158
      dxz     :     0.019307
      dyz     :     0.014411
      dx2y2   :     0.010858
      dxy     :     0.009267
  3 N s       :     3.926979  s :     3.926979
      pz      :     0.747256  p :     2.759450
      px      :     0.982576
      py      :     1.029619
      dz2     :     0.008688  d :     0.073564
      dxz     :     0.008227
      dyz     :     0.021054
      dx2y2   :     0.014603
      dxy     :     0.020991

SPIN
  0 N s       :     0.021085  s :     0.021085
      pz      :     0.079033  p :     0.284092
      px      :     0.039996
      py      :     0.165062
      dz2     :    -0.000207  d :     0.004669
      dxz     :     0.000838
      dyz     :    -0.000275
      dx2y2   :     0.002130
      dxy     :     0.002183
  1 N s       :     0.021533  s :     0.021533
      pz      :     0.305520  p :     0.292530
      px      :    -0.008904
      py      :    -0.004086
      dz2     :    -0.000360  d :     0.004754
      dxz     :     0.003975
      dyz     :    -0.000163
      dx2y2   :     0.001365
      dxy     :    -0.000064
  2 N s       :     0.012291  s :     0.012291
      pz      :     0.068895  p :     0.166948
      px      :    -0.043695
      py      :     0.141748
      dz2     :    -0.001010  d :     0.003122
      dxz     :     0.000423
      dyz     :    -0.000296
      dx2y2   :     0.002660
      dxy     :     0.001345
  3 N s       :     0.012300  s :     0.012300
      pz      :     0.259402  p :     0.173603
      px      :    -0.054019
      py      :    -0.031781
      dz2     :     0.000042  d :     0.003075
      dxz     :     0.002483
      dyz     :    -0.000329
      dx2y2   :     0.000466
      dxy     :     0.000414


                     *******************************
                     * LOEWDIN POPULATION ANALYSIS *
                     *******************************

-------------------------------------------
LOEWDIN ATOMIC CHARGES AND SPIN POPULATIONS
-------------------------------------------
   0 N :    0.262640    0.303068
   1 N :    0.263746    0.311082
   2 N :    0.236507    0.189922
   3 N :    0.237107    0.195927

----------------------------------------------------
LOEWDIN REDUCED ORBITAL CHARGES AND SPIN POPULATIONS
----------------------------------------------------
CHARGE
  0 N s       :     3.544879  s :     3.544879
      pz      :     1.095184  p :     3.082274
      px      :     1.060621
      py      :     0.926468
      dz2     :     0.029860  d :     0.110207
      dxz     :     0.020160
      dyz     :     0.022503
      dx2y2   :     0.017104
      dxy     :     0.020580
  1 N s       :     3.548276  s :     3.548276
      pz      :     0.834650  p :     3.078870
      px      :     1.126711
      py      :     1.117509
      dz2     :     0.017288  d :     0.109108
      dxz     :     0.026262
      dyz     :     0.015072
      dx2y2   :     0.030050
      dxy     :     0.020437
  2 N s       :     3.540188  s :     3.540188
      pz      :     1.095398  p :     3.110417
      px      :     1.065318
      py      :     0.949701
      dz2     :     0.030061  d :     0.112888
      dxz     :     0.030209
      dyz     :     0.020763
      dx2y2   :     0.017666
      dxy     :     0.014189
  3 N s       :     3.543276  s :     3.543276
      pz      :     0.841297  p :     3.107792
      px      :     1.067963
      py      :     1.198532
      dz2     :     0.012510  d :     0.111825
      dxz     :     0.014457
      dyz     :     0.032078
      dx2y2   :     0.021714
      dxy     :     0.031066

SPIN
  0 N s       :     0.011249  s :     0.011249
      pz      :     0.079140  p :     0.286546
      px      :     0.045848
      py      :     0.161558
      dz2     :    -0.000432  d :     0.005273
      dxz     :     0.001125
      dyz     :    -0.000235
      dx2y2   :     0.002497
      dxy     :     0.002318
  1 N s       :     0.011312  s :     0.011312
      pz      :     0.297029  p :     0.294480
      px      :    -0.000927
      py      :    -0.001623
      dz2     :    -0.000508  d :     0.005291
      dxz     :     0.004113
      dyz     :     0.000019
      dx2y2   :     0.001868
      dxy     :    -0.000201
  2 N s       :     0.008625  s :     0.008625
      pz      :     0.072418  p :     0.176842
      px      :    -0.037192
      py      :     0.141616
      dz2     :    -0.001253  d :     0.004455
      dxz     :     0.000621
      dyz     :     0.000026
      dx2y2   :     0.003131
      dxy     :     0.001930
  3 N s       :     0.008781  s :     0.008781
      pz      :     0.253008  p :     0.182825
      px      :    -0.047419
      py      :    -0.022764
      dz2     :     0.000645  d :     0.004322
      dxz     :     0.003256
      dyz     :    -0.001305
      dx2y2   :     0.000561
      dxy     :     0.001164


                      *****************************
                      * MAYER POPULATION ANALYSIS *
                      *****************************

  NA   - Mulliken gross atomic population
  ZA   - Total nuclear charge
  QA   - Mulliken gross atomic charge
  VA   - Mayer's total valence
  BVA  - Mayer's bonded valence
  FA   - Mayer's free valence

  ATOM       NA         ZA         QA         VA         BVA        FA
  0 N      6.7402     7.0000     0.2598     2.6048     2.4730     0.1318
  1 N      6.7394     7.0000     0.2606     2.6064     2.4684     0.1379
  2 N      6.7604     7.0000     0.2396     2.6421     2.5678     0.0744
  3 N      6.7600     7.0000     0.2400     2.6463     2.5687     0.0776

  Mayer bond orders larger than 0.1
B(  0-N ,  1-N ) :   0.6557 B(  0-N ,  2-N ) :   0.9781 B(  0-N ,  3-N ) :   0.8391 
B(  1-N ,  2-N ) :   0.8364 B(  1-N ,  3-N ) :   0.9763 B(  2-N ,  3-N ) :   0.7532 


-------
TIMINGS
-------

Total SCF time: 0 days 0 hours 1 min 30 sec 

Total time                  ....      90.244 sec
Sum of individual times     ....      90.481 sec  (100.3%)

Fock matrix formation       ....      84.639 sec  ( 93.8%)
Diagonalization             ....       2.722 sec  (  3.0%)
Density matrix formation    ....       0.587 sec  (  0.7%)
Population analysis         ....       0.022 sec  (  0.0%)
Initial guess               ....       1.048 sec  (  1.2%)
Orbital Transformation      ....       0.000 sec  (  0.0%)
Orbital Orthonormalization  ....       0.000 sec  (  0.0%)
DIIS solution               ....       1.030 sec  (  1.1%)
           ************************************************************
           *              Shut down parallel processing               *
           ************************************************************

-------------------------   --------------------
FINAL SINGLE POINT ENERGY      -216.814439323572
-------------------------   --------------------


                            ***************************************
                            *     ORCA property calculations      *
                            ***************************************

                                    ---------------------
                                    Active property flags
                                    ---------------------
   (+) Dipole Moment


------------------------------------------------------------------------------
                       ORCA ELECTRIC PROPERTIES CALCULATION
------------------------------------------------------------------------------

Dipole Moment Calculation                       ... on
Quadrupole Moment Calculation                   ... off
Polarizability Calculation                      ... off
GBWName                                         ... ./N4.gbw
Electron density file                           ... ./N4.scfp.tmp

-------------
DIPOLE MOMENT
-------------
                                X             Y             Z
Electronic contribution:      0.00359      -0.00409      -0.00809
Nuclear contribution   :     -0.00000       0.00000       0.00000
                        -----------------------------------------
Total Dipole Moment    :      0.00359      -0.00409      -0.00809
                        -----------------------------------------
Magnitude (a.u.)       :      0.00975
Magnitude (Debye)      :      0.02479


Timings for individual modules:

Sum of individual times         ...      105.238 sec (=   1.754 min)
GTO integral calculation        ...        8.139 sec (=   0.136 min)   7.7 %
SCF iterations                  ...       97.098 sec (=   1.618 min)  92.3 %
                             ****ORCA TERMINATED NORMALLY****
TOTAL RUN TIME: 0 days 0 hours 1 minutes 50 seconds 849 msec
