[Molden Format]
[Atoms] AU
   N     1    7      0.98265751     0.99683046     0.96848457
   N     2    7     -0.98265751    -0.98738183     0.98738183
   N     3    7     -0.98265751     0.97793320    -0.97793320
   N     4    7      0.98265751    -0.98738183    -0.97793320
[GTO]
    1  0
  s      6  0
 19730.80064700     0.00021888
  2957.89587450     0.00169607
   673.22133595     0.00879546
   190.68249494     0.03535938
    62.29544190     0.11095789
    22.65416118     0.24982973
  s      2  0
     8.97914774     0.40623896
     3.68630024     0.24338217
  s      1  0
     0.84660077     1.00000000
  s      1  0
     0.33647134     1.00000000
  s      1  0
     0.13647654     1.00000000
  p      4  0
    49.20038051     0.00555524
    11.34679054     0.03805238
     3.42739724     0.14953671
     1.17855251     0.34949305
  p      1  0
     0.41642205     1.00000000
  p      1  0
     0.14260826     1.00000000
  d      1  0
     1.65400000     1.00000000
  d      1  0
     0.46900000     1.00000000
  f      1  0
     1.09300000     1.00000000

    2  0
  s      6  0
 19730.80064700     0.00021888
  2957.89587450     0.00169607
   673.22133595     0.00879546
   190.68249494     0.03535938
    62.29544190     0.11095789
    22.65416118     0.24982973
  s      2  0
     8.97914774     0.40623896
     3.68630024     0.24338217
  s      1  0
     0.84660077     1.00000000
  s      1  0
     0.33647134     1.00000000
  s      1  0
     0.13647654     1.00000000
  p      4  0
    49.20038051     0.00555524
    11.34679054     0.03805238
     3.42739724     0.14953671
     1.17855251     0.34949305
  p      1  0
     0.41642205     1.00000000
  p      1  0
     0.14260826     1.00000000
  d      1  0
     1.65400000     1.00000000
  d      1  0
     0.46900000     1.00000000
  f      1  0
     1.09300000     1.00000000

    3  0
  s      6  0
 19730.80064700     0.00021888
  2957.89587450     0.00169607
   673.22133595     0.00879546
   190.68249494     0.03535938
    62.29544190     0.11095789
    22.65416118     0.24982973
  s      2  0
     8.97914774     0.40623896
     3.68630024     0.24338217
  s      1  0
     0.84660077     1.00000000
  s      1  0
     0.33647134     1.00000000
  s      1  0
     0.13647654     1.00000000
  p      4  0
    49.20038051     0.00555524
    11.34679054     0.03805238
     3.42739724     0.14953671
     1.17855251     0.34949305
  p      1  0
     0.41642205     1.00000000
  p      1  0
     0.14260826     1.00000000
  d      1  0
     1.65400000     1.00000000
  d      1  0
     0.46900000     1.00000000
  f      1  0
     1.09300000     1.00000000

    4  0
  s      6  0
 19730.80064700     0.00021888
  2957.89587450     0.00169607
   673.22133595     0.00879546
   190.68249494     0.03535938
    62.29544190     0.11095789
    22.65416118     0.24982973
  s      2  0
     8.97914774     0.40623896
     3.68630024     0.24338217
  s      1  0
     0.84660077     1.00000000
  s      1  0
     0.33647134     1.00000000
  s      1  0
     0.13647654     1.00000000
  p      4  0
    49.20038051     0.00555524
    11.34679054     0.03805238
     3.42739724     0.14953671
     1.17855251     0.34949305
  p      1  0
     0.41642205     1.00000000
  p      1  0
     0.14260826     1.00000000
  d      1  0
     1.65400000     1.00000000
  d      1  0
     0.46900000     1.00000000
  f      1  0
     1.09300000     1.00000000

[MO]
Sym=        a    
Ene=    -15.75058
Spin=       Alpha
Occup=    2.00000
     1    0.226072554679
     2    0.318554915340
     3    0.012213058974
     4   -0.015292687229
     5    0.000496867658
     6   -0.001067798509
     7   -0.001071088853
     8   -0.001063644099
     9    0.000128815349
    10    0.000197992683
    11    0.000076241596
    12   -0.000063123629
    13   -0.000054409956
    14   -0.000069606325
    15    0.000950404611
    16    0.000946817974
    17    0.000952940272
    18    0.000078404077
    19    0.000086217086
    20    0.000081973175
    21    0.002038278017
    22    0.002017121850
    23    0.002053489395
    24   -0.000071687297
    25   -0.000032073623
    26   -0.000054106033
    27    0.000042996598
    28    0.000044549948
    29    0.000041938858
    30    0.000024000660
    31    0.000023017265
    32    0.000023017265
    33    0.000018829875
    34    0.000020794251
    35    0.000022322944
    36    0.000003016256
    37    0.214351970841
    38    0.302038539183
    39    0.011518397321
    40   -0.014209537413
    41    0.000564640860
    42    0.000984083027
    43    0.000987797205
    44   -0.000999719079
    45    0.000063953974
    46    0.000136064912
    47   -0.000115811130
    48    0.000080584268
    49    0.000089704954
    50   -0.000088369594
    51    0.000895288459
    52    0.000898595179
    53    0.000900591646
    54    0.000075059940
    55   -0.000076748559
    56   -0.000080058938
    57    0.001950278108
    58    0.001972169721
    59    0.001964644582
    60   -0.000012119918
    61    0.000019252224
    62   -0.000004259015
    63   -0.000048322591
    64   -0.000047266977
    65    0.000047999215
    66   -0.000020420854
    67   -0.000022189968
    68   -0.000022189968
    69   -0.000022142968
    70   -0.000020153526
    71    0.000019282544
    72    0.000001466831
    73    0.234096979110
    74    0.329862106671
    75    0.012685945510
    76   -0.016040896849
    77    0.000444906606
    78    0.001130331230
    79   -0.001112553485
    80    0.001126324475
    81   -0.000279673593
    82    0.000345792653
    83   -0.000336049857
    84    0.000050530302
    85   -0.000040539662
    86    0.000043461604
    87    0.000988416959
    88    0.000982124821
    89    0.000985589761
    90   -0.000085592197
    91    0.000088870493
    92   -0.000082874766
    93    0.002092814384
    94    0.002074015877
    95    0.002076155993
    96    0.000081267839
    97   -0.000078384907
    98    0.000099972547
    99   -0.000038731797
   100    0.000039186987
   101   -0.000039561835
   102   -0.000021296850
   103    0.000020034431
   104    0.000020034431
   105   -0.000021225986
   106    0.000022939655
   107   -0.000022870780
   108    0.000004460470
   109    0.222893356259
   110    0.314074485381
   111    0.012018435428
   112   -0.014992365350
   113    0.000511770590
   114   -0.001048841861
   115    0.001052786749
   116    0.001045132486
   117    0.000091004058
   118   -0.000017059464
   119   -0.000145834091
   120   -0.000067336879
   121    0.000076767946
   122    0.000060552505
   123    0.000935642683
   124    0.000939075052
   125    0.000932948071
   126   -0.000084025599
   127   -0.000078000885
   128    0.000081409832
   129    0.002008909951
   130    0.002031145484
   131    0.001992480017
   132    0.000023634711
   133    0.000065893817
   134   -0.000041538700
   135    0.000043808236
   136   -0.000042792517
   137   -0.000044677742
   138    0.000017900956
   139   -0.000019667969
   140   -0.000019667969
   141    0.000024531911
   142   -0.000022455663
   143   -0.000019376697
   144    0.000002879847
Sym=        a    
Ene=    -15.74967
Spin=       Alpha
Occup=    2.00000
     1   -0.132868158855
     2   -0.187248774023
     3   -0.008093993793
     4    0.012768224790
     5    0.000715230550
     6    0.000740219047
     7    0.000808488725
     8    0.000748286564
     9   -0.003499440512
    10   -0.000362900470
    11   -0.002793713193
    12   -0.000450986316
    13   -0.000004951926
    14   -0.000351423169
    15   -0.000531772794
    16   -0.000665980753
    17   -0.000561168145
    18   -0.000062824577
    19    0.000044923968
    20   -0.000092831603
    21   -0.000659356054
    22   -0.001612740325
    23   -0.000878391624
    24    0.000214385951
    25    0.001035605359
    26   -0.000016198729
    27    0.000010979549
    28    0.000043937795
    29    0.000018854178
    30    0.000052658646
    31   -0.000020151027
    32   -0.000020151027
    33   -0.000081939739
    34    0.000017710306
    35    0.000074086025
    36   -0.000014858740
    37   -0.068349772075
    38   -0.096324155156
    39   -0.004138780597
    40    0.006458954700
    41    0.000336155594
    42   -0.000424091185
    43   -0.000367916560
    44    0.000379314500
    45   -0.000876420085
    46    0.002219814271
    47   -0.001886034382
    48   -0.000149089283
    49    0.000291223714
    50   -0.000244865570
    51   -0.000382161797
    52   -0.000253566156
    53   -0.000268716819
    54   -0.000054689565
    55    0.000070418682
    56   -0.000065673065
    57   -0.001131694369
    58   -0.000200615164
    59   -0.000301042647
    60   -0.000078415166
    61    0.000189507762
    62   -0.000860988787
    63   -0.000028925174
    64   -0.000000615432
    65    0.000004161502
    66    0.000004038967
    67   -0.000067523967
    68   -0.000067523967
    69   -0.000013860619
    70    0.000088093507
    71   -0.000095546618
    72   -0.000006032950
    73    0.376089210066
    74    0.530019686123
    75    0.023019139232
    76   -0.036412933838
    77   -0.002107331655
    78    0.002212050081
    79   -0.002193943788
    80    0.002216562898
    81   -0.006896399466
    82    0.006438375004
    83   -0.006170957482
    84   -0.000836965403
    85    0.000772887868
    86   -0.000735891843
    87    0.001654596885
    88    0.001667438834
    89    0.001682909647
    90   -0.000096239001
    91    0.000110843827
    92   -0.000125749435
    93    0.002817383523
    94    0.002949005965
    95    0.003042301559
    96    0.001292920605
    97   -0.001203264359
    98    0.001056411084
    99    0.000074778250
   100   -0.000078805646
   101    0.000081610107
   102   -0.000034218792
   103    0.000042468149
   104    0.000042468149
   105   -0.000016404223
   106    0.000003665798
   107   -0.000012242870
   108    0.000033845640
   109   -0.194498546095
   110   -0.274104948624
   111   -0.011831889174
   112    0.018555181966
   113    0.001012353756
   114    0.001110100828
   115   -0.001120763964
   116   -0.001157057953
   117   -0.004256240071
   118    0.003908222783
   119    0.001468815504
   120   -0.000532662802
   121    0.000481651188
   122    0.000135923406
   123   -0.000818163884
   124   -0.000833607052
   125   -0.000932426429
   126   -0.000018436266
   127    0.000087219326
   128   -0.000103189799
   129   -0.001216707270
   130   -0.001319853819
   131   -0.002053376380
   132   -0.001178825017
   133   -0.000353670433
   134    0.000234032337
   135    0.000027966328
   136   -0.000031347143
   137   -0.000052300127
   138   -0.000086020157
   139    0.000093824153
   140    0.000093824153
   141    0.000049735433
   142   -0.000061786007
   143   -0.000005357059
   144   -0.000017407086
Sym=        a    
Ene=    -15.74966
Spin=       Alpha
Occup=    2.00000
     1    0.361715979578
     2    0.509765889804
     3    0.022048428234
     4   -0.034746157743
     5   -0.001981022924
     6   -0.002128697982
     7   -0.002122369928
     8   -0.002099026621
     9    0.005529529471
    10    0.006774257185
    11    0.006199510017
    12    0.000648754499
    13    0.000823897032
    14    0.000745936329
    15    0.001631958846
    16    0.001582133279
    17    0.001601616840
    18    0.000110911515
    19    0.000131228226
    20    0.000079149653
    21    0.003010804521
    22    0.002625886442
    23    0.002817448984
    24   -0.001104208909
    25   -0.000935968018
    26   -0.001342822193
    27   -0.000081060806
    28   -0.000068712590
    29   -0.000075206983
    30    0.000034106159
    31    0.000004118788
    32    0.000004118788
    33    0.000005637392
    34    0.000042771183
    35    0.000058839335
    36    0.000032777066
    37   -0.113366293476
    38   -0.159767628495
    39   -0.006857932011
    40    0.010671627968
    41    0.000566699401
    42   -0.000654136588
    43   -0.000634097002
    44    0.000694099983
    45    0.002099208511
    46    0.003333166670
    47   -0.000119079862
    48    0.000254070418
    49    0.000428304272
    50    0.000029125624
    51   -0.000493405638
    52   -0.000441885526
    53   -0.000576232690
    54    0.000042262132
    55    0.000098733534
    56    0.000045845551
    57   -0.000810671105
    58   -0.000431858653
    59   -0.001408544784
    60    0.000934854065
    61    0.000157802816
    62   -0.000252116622
    63   -0.000021847943
    64   -0.000009225765
    65    0.000038183300
    66    0.000100952737
    67    0.000071124473
    68    0.000071124473
    69   -0.000082567385
    70   -0.000043302006
    71   -0.000032876030
    72   -0.000010455256
    73   -0.016955232036
    74   -0.023893813453
    75   -0.001037665338
    76    0.001681489187
    77    0.000105533700
    78   -0.000081305058
    79    0.000131941597
    80   -0.000068646275
    81    0.000942254090
    82    0.001713747758
    83    0.001618791432
    84    0.000129549169
    85    0.000246454345
    86    0.000226667511
    87   -0.000045606939
    88   -0.000155705395
    89   -0.000018435473
    90    0.000063584391
    91    0.000083237296
    92    0.000033066911
    93    0.000061685540
    94   -0.000731350916
    95    0.000257814894
    96    0.000406282591
    97    0.000721815029
    98    0.000169414786
    99    0.000004740473
   100    0.000019382586
   101    0.000009197137
   102   -0.000087346958
   103    0.000028231576
   104    0.000028231576
   105    0.000094996087
   106   -0.000010582346
   107   -0.000064145273
   108   -0.000001397909
   109   -0.240044309591
   110   -0.338293260602
   111   -0.014614393007
   112    0.022982315609
   113    0.001289445034
   114    0.001427681728
   115   -0.001385987117
   116   -0.001385686328
   117   -0.002487022679
   118    0.005108573890
   119    0.004516870123
   120   -0.000263193828
   121    0.000633941977
   122    0.000553584294
   123   -0.001128259013
   124   -0.001020379504
   125   -0.001043997132
   126    0.000093920537
   127    0.000115825751
   128   -0.000002935487
   129   -0.002342014821
   130   -0.001546103269
   131   -0.001742458208
   132   -0.000565617918
   133   -0.000386957316
   134    0.001265359084
   135    0.000061685711
   136   -0.000037386915
   137   -0.000045281140
   138   -0.000022538401
   139   -0.000037801164
   140   -0.000037801164
   141    0.000006932873
   142    0.000075769356
   143    0.000092500282
   144   -0.000021846877
Sym=        a    
Ene=    -15.74963
Spin=       Alpha
Occup=    2.00000
     1   -0.044529176172
     2   -0.062756693044
     3   -0.002712687226
     4    0.004251382520
     5    0.000248663071
     6    0.000247315716
     7    0.000264388261
     8    0.000298809210
     9   -0.002184003549
    10   -0.001287154576
    11    0.001104304042
    12   -0.000290141806
    13   -0.000162121120
    14    0.000177983880
    15   -0.000144386326
    16   -0.000180849913
    17   -0.000275971046
    18    0.000067510113
    19   -0.000036907037
    20   -0.000076699217
    21    0.000077634205
    22   -0.000186497958
    23   -0.000894097214
    24    0.000789911429
    25   -0.000030903619
    26   -0.000340940242
    27    0.000001731052
    28    0.000008178786
    29    0.000024839744
    30   -0.000077564896
    31   -0.000097237923
    32   -0.000097237923
    33    0.000057839991
    34    0.000088261589
    35    0.000034465075
    36   -0.000001437281
    37    0.371638746396
    38    0.523751009533
    39    0.022552486308
    40   -0.035396492771
    41   -0.001976650850
    42    0.002145130170
    43    0.002169068974
    44   -0.002167614901
    45   -0.006417795063
    46   -0.005542192445
    47    0.006651083010
    48   -0.000774637889
    49   -0.000648260819
    50    0.000807155787
    51    0.001636482719
    52    0.001674384749
    53    0.001632970142
    54    0.000126277063
    55   -0.000080753268
    56   -0.000121167352
    57    0.002835371567
    58    0.003092631044
    59    0.002769974075
    60   -0.000989824538
    61    0.001367754731
    62    0.001063283897
    63    0.000072470727
    64    0.000080095900
    65   -0.000070707898
    66    0.000004828642
    67   -0.000014369571
    68   -0.000014369571
    69   -0.000055191315
    70   -0.000024888572
    71    0.000001289355
    72    0.000034765647
    73   -0.071066020935
    74   -0.100153898120
    75   -0.004362548933
    76    0.006946725483
    77    0.000428180028
    78   -0.000458056059
    79    0.000412685755
    80   -0.000397993128
    81   -0.000575223041
    82   -0.001690081643
    83    0.002757068602
    84   -0.000109270748
    85   -0.000212089609
    86    0.000365118788
    87   -0.000393506672
    88   -0.000299394008
    89   -0.000256660363
    90    0.000085076743
    91   -0.000039137931
    92   -0.000060885727
    93   -0.001103659587
    94   -0.000425423091
    95   -0.000108067044
    96    0.000263890416
    97    0.000099807747
    98   -0.000868758869
    99   -0.000032409226
   100    0.000013388392
   101   -0.000004772595
   102   -0.000034848951
   103    0.000086923483
   104    0.000086923483
   105    0.000024638064
   106   -0.000098868903
   107    0.000074602541
   108   -0.000006711768
   109   -0.237595594203
   110   -0.334844047348
   111   -0.014495600139
   112    0.022910951025
   113    0.001340743518
   114    0.001382583170
   115   -0.001427556907
   116   -0.001374587621
   117   -0.004826067038
   118    0.002577143920
   119    0.004958503729
   120   -0.000595866245
   121    0.000275867029
   122    0.000616759665
   123   -0.001026069103
   124   -0.001119921599
   125   -0.001019381258
   126    0.000107991554
   127    0.000001404299
   128   -0.000100983318
   129   -0.001630227775
   130   -0.002302092732
   131   -0.001593778659
   132   -0.000464896295
   133   -0.001280642854
   134    0.000513813457
   135    0.000044999761
   136   -0.000064441014
   137   -0.000043780742
   138    0.000049080658
   139    0.000002484499
   140    0.000002484499
   141   -0.000085147363
   142    0.000010337688
   143   -0.000043367369
   144   -0.000022253199
Sym=        a    
Ene=     -1.65303
Spin=       Alpha
Occup=    2.00000
     1   -0.045862903650
     2   -0.103774938127
     3    0.133491537078
     4    0.200344485010
     5    0.017922723729
     6   -0.049746728463
     7   -0.049677269786
     8   -0.049791446911
     9   -0.036965109338
    10   -0.037085443121
    11   -0.036837313056
    12   -0.004016195573
    13   -0.004019464595
    14   -0.004010782948
    15    0.001403045273
    16    0.001404707390
    17    0.001397019622
    18    0.002844292109
    19    0.002910377786
    20    0.002876746989
    21   -0.003490876729
    22   -0.003415145286
    23   -0.003569216087
    24    0.005692325665
    25    0.005695425337
    26    0.005693583442
    27   -0.000195184242
    28   -0.000207255521
    29   -0.000182593378
    30   -0.000637639536
    31   -0.000628682604
    32   -0.000628682604
    33   -0.000640510892
    34   -0.000629858912
    35   -0.000648346673
    36   -0.000303056691
    37   -0.045553285331
    38   -0.103078982684
    39    0.132515203855
    40    0.199185878517
    41    0.018035548883
    42    0.048969722996
    43    0.049298392785
    44   -0.049971283336
    45    0.036341348453
    46    0.036538146033
    47   -0.036919316486
    48    0.004001606609
    49    0.004053241601
    50   -0.004074421093
    51    0.001339719516
    52    0.001386623961
    53    0.001430896383
    54    0.002812025964
    55   -0.002887420513
    56   -0.002899601713
    57   -0.003592209021
    58   -0.003521225278
    59   -0.003481731922
    60    0.005570667600
    61   -0.005664401406
    62   -0.005680612839
    63    0.000187053915
    64    0.000203195852
    65   -0.000202064914
    66    0.000634677091
    67    0.000619651648
    68    0.000619651648
    69    0.000642991972
    70    0.000641982306
    71   -0.000646976525
    72   -0.000306308994
    73   -0.046172172452
    74   -0.104469955647
    75    0.134448317168
    76    0.201553431537
    77    0.017802394378
    78    0.050506753097
    79   -0.049481060004
    80    0.050166069321
    81    0.037602743243
    82   -0.037006916924
    83    0.037395915944
    84    0.004028166553
    85   -0.003955221658
    86    0.003976566141
    87    0.001464543203
    88    0.001371785391
    89    0.001415259581
    90   -0.002863826108
    91    0.002941147355
    92   -0.002851978610
    93   -0.003390832212
    94   -0.003505651569
    95   -0.003466151693
    96   -0.005724242747
    97    0.005820047793
    98   -0.005707848771
    99    0.000203023324
   100   -0.000187724487
   101    0.000186261582
   102    0.000635469932
   103   -0.000634761646
   104   -0.000634761646
   105    0.000643348189
   106   -0.000631466327
   107    0.000636504572
   108   -0.000299131743
   109   -0.045858721579
   110   -0.103765372595
   111    0.133464827020
   112    0.200360707213
   113    0.017921382494
   114   -0.049732872015
   115    0.050061356452
   116    0.049392211448
   117   -0.036962428381
   118    0.037161504870
   119    0.036758050897
   120   -0.004015742986
   121    0.004066916149
   122    0.003963684848
   123    0.001401509854
   124    0.001449202031
   125    0.001353053219
   126   -0.002888429768
   127   -0.002864386350
   128    0.002875512496
   129   -0.003494907894
   130   -0.003422081690
   131   -0.003568323983
   132   -0.005710372602
   133   -0.005677757245
   134    0.005693279033
   135   -0.000195004189
   136    0.000211614891
   137    0.000178715883
   138   -0.000642719843
   139    0.000638284498
   140    0.000638284498
   141   -0.000635866027
   142    0.000623692955
   143    0.000654344486
   144   -0.000302864774
Sym=        a    
Ene=     -1.04431
Spin=       Alpha
Occup=    2.00000
     1   -0.056327078452
     2   -0.130632431709
     3    0.204396691909
     4    0.284264993481
     5    0.092295664492
     6   -0.012327776625
     7    0.076459851079
     8   -0.054686171422
     9   -0.028588190393
    10    0.043224452317
    11   -0.063068021915
    12   -0.003399562450
    13    0.010874202272
    14   -0.010297799534
    15    0.002133696772
    16   -0.002464071772
    17    0.004270938255
    18   -0.002652068366
    19    0.002924296291
    20   -0.000824780259
    21    0.006054731959
    22   -0.001610005458
    23    0.009657476701
    24   -0.000931130201
    25    0.008991787690
    26    0.002344882225
    27    0.000016420554
    28    0.000558606664
    29   -0.000227052693
    30    0.000579714878
    31    0.000153944969
    32    0.000153944969
    33   -0.000835674089
    34   -0.000317429320
    35    0.000313738797
    36    0.000114520067
    37    0.060288641169
    38    0.139829820902
    39   -0.219045394963
    40   -0.303897240203
    41   -0.099001863565
    42   -0.014614906376
    43    0.072662774327
    44    0.046192983552
    45   -0.031851570934
    46    0.038977529288
    47    0.057942221640
    48   -0.003918674172
    49    0.010145949567
    50    0.009119325884
    51   -0.002343283585
    52    0.002135690716
    53   -0.003979052432
    54    0.002367097311
    55    0.002648380108
    56   -0.001036265467
    57   -0.006638864569
    58    0.000874962029
    59   -0.009525022100
    60    0.000197276437
    61    0.008873804759
    62    0.002268262620
    63    0.000021827520
    64    0.000546957268
    65    0.000178081118
    66    0.000505435086
    67    0.000087910228
    68    0.000087910228
    69   -0.000777691290
    70   -0.000268701264
    71   -0.000318313448
    72   -0.000131227608
    73   -0.033218855337
    74   -0.077037210379
    75    0.120337207004
    76    0.168070061872
    77    0.054273380677
    78    0.066800513056
    79    0.097505308868
    80    0.023510092589
    81    0.065209930355
    82    0.068059958919
    83    0.030040013483
    84    0.011531812754
    85    0.014819186487
    86    0.004586614104
    87    0.004336425297
    88   -0.004079650501
    89    0.002073665611
    90    0.001295320785
    91    0.003887146510
    92    0.003088010902
    93    0.008730047499
    94   -0.005450161306
    95    0.004889690519
    96    0.000065722442
    97    0.009176543909
    98    0.003284723108
    99    0.000367850807
   100    0.000627460961
   101    0.000085813954
   102   -0.000539538576
   103   -0.000236555699
   104   -0.000236555699
   105    0.000743946769
   106    0.000215418698
   107   -0.000786680866
   108    0.000093525474
   109    0.029733741299
   110    0.068962589150
   111   -0.107790266037
   112   -0.150525095684
   113   -0.048665064278
   114    0.062577458985
   115    0.099310206917
   116   -0.031253997384
   117    0.060811311302
   118    0.070606105744
   119   -0.035348419091
   120    0.010818151623
   121    0.015215740879
   122   -0.005783969256
   123   -0.004002263044
   124    0.004342319265
   125   -0.002397959323
   126   -0.001492834765
   127    0.003984565084
   128    0.002826608033
   129   -0.008047111770
   130    0.006004579259
   131   -0.005332472362
   132   -0.000638338612
   133    0.009178238700
   134    0.003044316354
   135    0.000332617102
   136    0.000665628741
   137   -0.000139311569
   138   -0.000598358591
   139   -0.000190064561
   140   -0.000190064561
   141    0.000789579666
   142    0.000143832975
   143    0.000784337059
   144   -0.000063263047
Sym=        a    
Ene=     -1.04094
Spin=       Alpha
Occup=    2.00000
     1   -0.015954149324
     2   -0.037007869634
     3    0.057904424483
     4    0.080856118681
     5    0.026532838743
     6    0.106207113512
     7   -0.051486540388
     8   -0.050977730901
     9    0.080909351701
    10   -0.047180785313
    11   -0.047018559937
    12    0.016719213426
    13   -0.008727483827
    14   -0.008747167174
    15   -0.004992744194
    16    0.003091622726
    17    0.003004148906
    18   -0.002286597460
    19   -0.002264935852
    20    0.004337510857
    21   -0.007720125710
    22    0.005923006647
    23    0.005822331380
    24   -0.003022098870
    25   -0.002942321032
    26    0.008881857459
    27    0.000666609125
    28   -0.000291794723
    29   -0.000272539453
    30    0.000029802977
    31    0.000783436193
    32    0.000783436193
    33    0.000003400644
    34   -0.000886458469
    35   -0.000902088543
    36    0.000034938848
    37    0.042922435295
    38    0.099566887045
    39   -0.156110734355
    40   -0.216738429110
    41   -0.071586653831
    42    0.083105659060
    43   -0.073656264533
    44   -0.000733444781
    45    0.053071716595
    46   -0.074462882396
    47    0.014147420982
    48    0.012216246310
    49   -0.013168437673
    50    0.001185540406
    51    0.003064768756
    52   -0.004917289175
    53   -0.001115538258
    54    0.000319370538
    55   -0.003437166912
    56    0.003170591977
    57    0.003192198370
    58   -0.010312420605
    59   -0.003938911553
    60   -0.002367486514
    61   -0.003211144786
    62    0.008658972466
    63    0.000568984267
    64   -0.000367175795
    65   -0.000084366634
    66   -0.000432927196
    67    0.000322429968
    68    0.000322429968
    69    0.000348808745
    70   -0.000559931578
    71    0.000926770371
    72   -0.000090195269
    73    0.042707581558
    74    0.099063725296
    75   -0.154721080965
    76   -0.217107294176
    77   -0.070812077370
    78    0.083384266738
    79   -0.001246519912
    80   -0.074753391490
    81    0.053100952281
    82    0.013435146646
    83   -0.075400455642
    84    0.012275419337
    85    0.000922008487
    86   -0.013254772101
    87    0.003121867211
    88   -0.001099281161
    89   -0.004976977600
    90   -0.003462100498
    91    0.000260911272
    92    0.003159668773
    93    0.003392854481
    94   -0.003679269168
    95   -0.010290022402
    96   -0.003264523307
    97   -0.002492626923
    98    0.008597636201
    99    0.000576731934
   100   -0.000070104010
   101   -0.000384203729
   102    0.000351595922
   103   -0.000750692284
   104   -0.000750692284
   105   -0.000465832574
   106    0.000924072397
   107   -0.000562013596
   108   -0.000098938283
   109   -0.069676466609
   110   -0.161624210838
   111    0.252922172932
   112    0.353011768505
   113    0.115870677086
   114    0.060267787944
   115    0.022623355865
   116    0.021321853888
   117    0.025247988697
   118    0.042217936884
   119    0.041023340168
   120    0.007768557972
   121    0.005626979123
   122    0.005430171680
   123   -0.001193769702
   124    0.003061614730
   125    0.002950697005
   126    0.001453430473
   127    0.001472920618
   128    0.001991243827
   129    0.001134309144
   130    0.008370236930
   131    0.008100011484
   132   -0.002205494612
   133   -0.002147643121
   134    0.008373882103
   135    0.000479184555
   136    0.000034093293
   137   -0.000001039285
   138   -0.000116738418
   139   -0.000282611759
   140   -0.000282611759
   141   -0.000115359463
   142    0.000575339393
   143    0.000607933868
   144    0.000153593995
Sym=        a    
Ene=     -1.03762
Spin=       Alpha
Occup=    2.00000
     1   -0.056164645026
     2   -0.130307304734
     3    0.203955540749
     4    0.285641470201
     5    0.094786762629
     6   -0.008673673180
     7   -0.052730597353
     8    0.078291189369
     9   -0.026846012920
    10   -0.062631625048
    11    0.044248051409
    12   -0.003189350333
    13   -0.010262182234
    14    0.010957830738
    15    0.001982751764
    16    0.004255633956
    17   -0.002397339813
    18    0.002706418929
    19   -0.002731219690
    20   -0.000928253921
    21    0.005998919681
    22    0.009854316404
    23   -0.001517439128
    24    0.008862244010
    25   -0.000973688170
    26    0.002262892081
    27    0.000044084105
    28   -0.000231913162
    29    0.000561656594
    30   -0.000800815528
    31   -0.000582915833
    32   -0.000582915833