[Molden Format]
[Atoms] AU
   N     1    7      0.98265751     0.99683046     0.96848457
   N     2    7     -0.98265751    -0.98738183     0.98738183
   N     3    7     -0.98265751     0.97793320    -0.97793320
   N     4    7      0.98265751    -0.98738183    -0.97793320
[GTO]
    1  0
  s      6  0
 19730.80064700     0.00021888
  2957.89587450     0.00169607
   673.22133595     0.00879546
   190.68249494     0.03535938
    62.29544190     0.11095789
    22.65416118     0.24982973
  s      2  0
     8.97914774     0.40623896
     3.68630024     0.24338217
  s      1  0
     0.84660077     1.00000000
  s      1  0
     0.33647134     1.00000000
  s      1  0
     0.13647654     1.00000000
  p      4  0
    49.20038051     0.00555524
    11.34679054     0.03805238
     3.42739724     0.14953671
     1.17855251     0.34949305
  p      1  0
     0.41642205     1.00000000
  p      1  0
     0.14260826     1.00000000
  d      1  0
     1.65400000     1.00000000
  d      1  0
     0.46900000     1.00000000
  f      1  0
     1.09300000     1.00000000

    2  0
  s      6  0
 19730.80064700     0.00021888
  2957.89587450     0.00169607
   673.22133595     0.00879546
   190.68249494     0.03535938
    62.29544190     0.11095789
    22.65416118     0.24982973
  s      2  0
     8.97914774     0.40623896
     3.68630024     0.24338217
  s      1  0
     0.84660077     1.00000000
  s      1  0
     0.33647134     1.00000000
  s      1  0
     0.13647654     1.00000000
  p      4  0
    49.20038051     0.00555524
    11.34679054     0.03805238
     3.42739724     0.14953671
     1.17855251     0.34949305
  p      1  0
     0.41642205     1.00000000
  p      1  0
     0.14260826     1.00000000
  d      1  0
     1.65400000     1.00000000
  d      1  0
     0.46900000     1.00000000
  f      1  0
     1.09300000     1.00000000

    3  0
  s      6  0
 19730.80064700     0.00021888
  2957.89587450     0.00169607
   673.22133595     0.00879546
   190.68249494     0.03535938
    62.29544190     0.11095789
    22.65416118     0.24982973
  s      2  0
     8.97914774     0.40623896
     3.68630024     0.24338217
  s      1  0
     0.84660077     1.00000000
  s      1  0
     0.33647134     1.00000000
  s      1  0
     0.13647654     1.00000000
  p      4  0
    49.20038051     0.00555524
    11.34679054     0.03805238
     3.42739724     0.14953671
     1.17855251     0.34949305
  p      1  0
     0.41642205     1.00000000
  p      1  0
     0.14260826     1.00000000
  d      1  0
     1.65400000     1.00000000
  d      1  0
     0.46900000     1.00000000
  f      1  0
     1.09300000     1.00000000

    4  0
  s      6  0
 19730.80064700     0.00021888
  2957.89587450     0.00169607
   673.22133595     0.00879546
   190.68249494     0.03535938
    62.29544190     0.11095789
    22.65416118     0.24982973
  s      2  0
     8.97914774     0.40623896
     3.68630024     0.24338217
  s      1  0
     0.84660077     1.00000000
  s      1  0
     0.33647134     1.00000000
  s      1  0
     0.13647654     1.00000000
  p      4  0
    49.20038051     0.00555524
    11.34679054     0.03805238
     3.42739724     0.14953671
     1.17855251     0.34949305
  p      1  0
     0.41642205     1.00000000
  p      1  0
     0.14260826     1.00000000
  d      1  0
     1.65400000     1.00000000
  d      1  0
     0.46900000     1.00000000
  f      1  0
     1.09300000     1.00000000

[MO]
Sym=        a    
Ene=    -15.82842
Spin=       Alpha
Occup=    2.00000
     1    0.228560955582
     2    0.293966416280
     3    0.065020422814
     4    0.021990346323
     5    0.000593542470
     6   -0.001083694010
     7   -0.001103098112
     8   -0.001065020208
     9   -0.000629830637
    10   -0.000613222488
    11   -0.000637511300
    12    0.001298827207
    13    0.001293910261
    14    0.001301985257
    15   -0.016347199817
    16   -0.016340187911
    17   -0.016353499232
    18    0.000067999223
    19    0.000057581651
    20    0.000062964568
    21   -0.005762073100
    22   -0.005776750245
    23   -0.005747578299
    24   -0.000375905776
    25   -0.000378846255
    26   -0.000377690167
    27    0.000077881021
    28    0.000073828706
    29    0.000080740310
    30    0.000058686710
    31    0.000053778504
    32    0.000053778504
    33    0.000050488524
    34    0.000049677255
    35    0.000058888017
    36   -0.000057880003
    37    0.228550210894
    38    0.293941217550
    39    0.065017413924
    40    0.021992254678
    41    0.000549224672
    42    0.001086391828
    43    0.001091997287
    44   -0.001088412922
    45    0.000619797975
    46    0.000577518893
    47   -0.000634032702
    48   -0.001298630051
    49   -0.001296458458
    50    0.001326077517
    51   -0.016348731738
    52   -0.016347730077
    53   -0.016352566732
    54    0.000067136614
    55   -0.000062608338
    56   -0.000063862802
    57   -0.005763488910
    58   -0.005780983447
    59   -0.005763456813
    60   -0.000379175785
    61    0.000387747212
    62    0.000389478600
    63   -0.000075064060
    64   -0.000072964310
    65    0.000079842012
    66   -0.000059325451
    67   -0.000054020821
    68   -0.000054020821
    69   -0.000052331346
    70   -0.000049067614
    71    0.000058797893
    72   -0.000055158012
    73    0.226412424725
    74    0.291227317255
    75    0.064409495584
    76    0.021787022323
    77    0.000609340903
    78    0.001073101975
    79   -0.001071065636
    80    0.001068042417
    81    0.000658773847
    82   -0.000629397646
    83    0.000702020707
    84   -0.001301066715
    85    0.001269570070
    86   -0.001303584058
    87   -0.016185030356
    88   -0.016180274289
    89   -0.016186039959
    90   -0.000062632662
    91    0.000056842528
    92   -0.000061133517
    93   -0.005696458473
    94   -0.005697006435
    95   -0.005679652786
    96    0.000366266988
    97   -0.000374771763
    98    0.000364763349
    99   -0.000082263457
   100    0.000075887909
   101   -0.000084431184
   102   -0.000057175571
   103    0.000050665010
   104    0.000050665010
   105   -0.000051462109
   106    0.000050726506
   107   -0.000060584783
   108   -0.000060691003
   109    0.227092587535
   110    0.292086509077
   111    0.064602933041
   112    0.021853464704
   113    0.000573629234
   114   -0.001078102627
   115    0.001084040122
   116    0.001073377075
   117   -0.000637750817
   118    0.000598338781
   119    0.000683888572
   120    0.001299284480
   121   -0.001297314088
   122   -0.001302023738
   123   -0.016237668996
   124   -0.016236918234
   125   -0.016238931772
   126   -0.000063668077
   127   -0.000060917069
   128    0.000061916435
   129   -0.005718385711
   130   -0.005736036839
   131   -0.005701730560
   132    0.000378757434
   133    0.000375522355
   134   -0.000376894087
   135    0.000078612698
   136   -0.000076628293
   137   -0.000080889491
   138    0.000055231756
   139   -0.000051458123
   140   -0.000051458123
   141    0.000054805081
   142   -0.000050256705
   143   -0.000060487196
   144   -0.000057949844
Sym=        a    
Ene=    -15.82690
Spin=       Alpha
Occup=    2.00000
     1   -0.276091635490
     2   -0.353577540325
     3   -0.078483726476
     4   -0.025727817235
     5   -0.003878402868
     6    0.001036515643
     7    0.001013368786
     8    0.001181118890
     9   -0.002952789695
    10   -0.003331650854
    11   -0.001317076925
    12    0.000444748244
    13    0.000551046690
    14    0.000001516952
    15    0.020427718540
    16    0.020394367137
    17    0.020541362534
    18   -0.000235777536
    19   -0.000060215784
    20   -0.000093015987
    21    0.008084721757
    22    0.008066717957
    23    0.008185261864
    24    0.000026416221
    25    0.000085298497
    26    0.000066116600
    27    0.000300804678
    28    0.000337133017
    29    0.000166644393
    30    0.000282146579
    31    0.000279259064
    32    0.000279259064
    33    0.000040139678
    34    0.000081681118
    35    0.000090374497
    36   -0.000010294737
    37    0.353906843260
    38    0.453214745998
    39    0.100605750189
    40    0.032981025877
    41    0.004981132573
    42    0.001361637885
    43    0.001330968691
    44   -0.001469600296
    45   -0.003469846537
    46   -0.003822374901
    47    0.002652939422
    48    0.000497483590
    49    0.000597471707
    50   -0.000266854796
    51   -0.026213348857
    52   -0.026184068903
    53   -0.026269776669
    54    0.000230387616
    55   -0.000126385794
    56   -0.000159086836
    57   -0.010395076450
    58   -0.010369468443
    59   -0.010459353370
    60   -0.000049967878
    61    0.000096104222
    62    0.000084759371
    63    0.000365843010
    64    0.000397797210
    65   -0.000298884704
    66    0.000269555721
    67    0.000262084634
    68    0.000262084634
    69    0.000111685962
    70    0.000150872106
    71   -0.000165706863
    72    0.000007118416
    73   -0.078742766210
    74   -0.100850294600
    75   -0.022384201764
    76   -0.007339604121
    77   -0.001108840711
    78   -0.000421520798
    79    0.000193401330
    80   -0.000289852468
    81   -0.000938589553
    82   -0.002211276655
    83    0.000827590254
    84    0.000351955870
    85    0.000501578534
    86   -0.000123467310
    87    0.005953906254
    88    0.005718579072
    89    0.005823735430
    90    0.000026725287
    91    0.000099387787
    92    0.000181018911
    93    0.002373161047
    94    0.002247384903
    95    0.002297810464
    96   -0.000013339753
    97    0.000035435718
    98    0.000007048564
    99    0.000065304028
   100    0.000197083608
   101   -0.000085742031
   102   -0.000024339227
   103    0.000023723649
   104    0.000023723649
   105    0.000122512462
   106    0.000216640958
   107   -0.000214698546
   108   -0.000000746950
   109    0.000219090166
   110    0.000279954495
   111    0.000066848395
   112    0.000026339534
   113    0.000010523574
   114   -0.000107387062
   115   -0.000131599048
   116    0.000033297852
   117   -0.001318297054
   118   -0.001739261911
   119    0.000377311147
   120    0.000347046760
   121    0.000481824676
   122   -0.000093883338
   123   -0.000113804543
   124    0.000114279548
   125   -0.000045421495
   126   -0.000035104211
   127    0.000151408582
   128    0.000120382197
   129   -0.000066330045
   130    0.000078035832
   131   -0.000021734144
   132   -0.000006646748
   133    0.000026308959
   134    0.000020333256
   135    0.000104648520
   136    0.000151283793
   137   -0.000029960167
   138   -0.000049376970
   139    0.000038907355
   140    0.000038907355
   141    0.000188628457
   142    0.000146303081
   143    0.000155486828
   144    0.000000124349
Sym=        a    
Ene=    -15.82687
Spin=       Alpha
Occup=    2.00000
     1   -0.159828204777
     2   -0.204666660317
     3   -0.045434037855
     4   -0.014887207396
     5   -0.002232953540
     6    0.000762215378
     7    0.000586380572
     8    0.000550746899
     9    0.000121390691
    10   -0.002228843497
    11   -0.002489459013
    12   -0.000241601165
    13    0.000386051842
    14    0.000451470576
    15    0.011966222552
    16    0.011789265978
    17    0.011780710874
    18    0.000005155092
    19   -0.000018488094
    20   -0.000225623563
    21    0.004789180756
    22    0.004687120323
    23    0.004666731961
    24    0.000046121202
    25    0.000056878574
    26    0.000016115820
    27    0.000024506889
    28    0.000223223551
    29    0.000237576023
    30   -0.000025617652
    31   -0.000028586449
    32   -0.000028586449
    33    0.000009843476
    34    0.000263833692
    35    0.000266639836
    36   -0.000004894044
    37   -0.144187290259
    38   -0.184631461705
    39   -0.040984221536
    40   -0.013425754945
    41   -0.002012675574
    42   -0.000518805510
    43   -0.000704738174
    44    0.000494200758
    45    0.002044060600
    46   -0.000272368401
    47   -0.002396152360
    48   -0.000354926779
    49    0.000266314140
    50    0.000439793235
    51    0.010638600966
    52    0.010811419035
    53    0.010615769486
    54    0.000016630997
    55    0.000218621036
    56    0.000013201212
    57    0.004230359193
    58    0.004338170208
    59    0.004210362035
    60    0.000047830708
    61   -0.000012016529
    62   -0.000051419272
    63   -0.000199069698
    64   -0.000007626818
    65    0.000229253978
    66    0.000044637267
    67    0.000036684565
    68    0.000036684565
    69   -0.000261027534
    70   -0.000005384833
    71   -0.000005448856
    72   -0.000005129914
    73   -0.086535131500
    74   -0.110820414240
    75   -0.024603050143
    76   -0.008067169296
    77   -0.001221713779
    78   -0.000273891695
    79    0.000268340063
    80   -0.000472703007
    81    0.001665092563
    82   -0.001762691517
    83   -0.000998306225
    84   -0.000339111990
    85    0.000369997176
    86    0.000364684083
    87    0.006349910693
    88    0.006339997235
    89    0.006542219022
    90    0.000201652214
    91    0.000042148940
    92   -0.000032663558
    93    0.002503275931
    94    0.002505665354
    95    0.002615247769
    96    0.000004209808
    97    0.000032105470
    98   -0.000025334821
    99   -0.000159460737
   100    0.000166836556
   101    0.000063061657
   102   -0.000240093961
   103    0.000242452364
   104    0.000242452364
   105    0.000058069327
   106   -0.000049298617
   107    0.000050397029
   108   -0.000002141065
   109    0.392245648043
   110    0.502301885602
   111    0.111502844066
   112    0.036542034050
   113    0.005470147323
   114   -0.001562153274
   115    0.001556476011
   116    0.001533712604
   117    0.003570189065
   118   -0.003620731090
   119   -0.003959199474
   120   -0.000437085428
   121    0.000452519272
   122    0.000536253484
   123   -0.029075950554
   124   -0.029070020347
   125   -0.029049993833
   126   -0.000173207505
   127   -0.000200280095
   128    0.000205944488
   129   -0.011562844751
   130   -0.011553107917
   131   -0.011553916790
   132    0.000095374870
   133    0.000100273598
   134   -0.000094873115
   135   -0.000380130184
   136    0.000386491604
   137    0.000410498659
   138   -0.000175275480
   139    0.000171891234
   140    0.000171891234
   141   -0.000204916503
   142    0.000209011628
   143    0.000219199541
   144    0.000012135512
Sym=        a    
Ene=    -15.82684
Spin=       Alpha
Occup=    2.00000
     1   -0.231462923536
     2   -0.296378114956
     3   -0.065796791135
     4   -0.021551044089
     5   -0.003212013249
     6    0.000890136990
     7    0.001038198720
     8    0.000863907154
     9   -0.002946149621
    10   -0.000768318008
    11   -0.003189147092
    12    0.000461478803
    13   -0.000107665694
    14    0.000523307280
    15    0.017106935799
    16    0.017274208962
    17    0.017094954660
    18   -0.000042148154
    19   -0.000257603132
    20   -0.000064252136
    21    0.006832236063
    22    0.006898211854
    23    0.006818953010
    24    0.000065945681
    25    0.000058383983
    26    0.000073254775
    27    0.000297955688
    28    0.000114781976
    29    0.000314082478
    30    0.000026467759
    31    0.000026121205
    32    0.000026121205
    33    0.000280052408
    34    0.000054651479
    35    0.000054082310
    36   -0.000005650211
    37   -0.096510634883
    38   -0.123572751004
    39   -0.027435672056
    40   -0.008987239110
    41   -0.001349858739
    42   -0.000522823194
    43   -0.000359274803
    44    0.000285101808
    45   -0.000695863678
    46    0.001343748823
    47   -0.002246461588
    48    0.000305028284
    49   -0.000233784313
    50    0.000462587140
    51    0.007276446964
    52    0.007126436393
    53    0.007064261698
    54    0.000060720391
    55    0.000014717273
    56    0.000196823819
    57    0.002935656737
    58    0.002840868516
    59    0.002795569788
    60    0.000042850811
    61   -0.000036223495
    62   -0.000001480951
    63    0.000032366785
    64   -0.000132964567
    65    0.000211877091
    66    0.000091229998
    67    0.000097011783
    68    0.000097011783
    69   -0.000012939844
    70   -0.000240428077
    71    0.000236180869
    72   -0.000004584707
    73    0.377667594958
    74    0.483626237481
    75    0.107357576450
    76    0.035173301919
    77    0.005226039546
    78    0.001504691026
    79   -0.001522169505
    80    0.001485517208
    81   -0.003792441872
    82    0.002986071077
    83   -0.004066827305
    84    0.000477628409
    85   -0.000282541535
    86    0.000545949870
    87   -0.027971891238
    88   -0.028033562886
    89   -0.027954995314
    90   -0.000148818197
    91    0.000243324444
    92   -0.000171789865
    93   -0.011143609838
    94   -0.011151665507
    95   -0.011139869461
    96    0.000096346193
    97   -0.000112810199
    98    0.000098278025
    99    0.000393455885
   100   -0.000326219460
   101    0.000413712940
   102    0.000149309170
   103   -0.000143973981
   104   -0.000143973981
   105    0.000244174693
   106   -0.000170179420
   107    0.000179035999
   108    0.000015223225
   109   -0.046466529756
   110   -0.059499446278
   111   -0.013213755133
   112   -0.004333229926
   113   -0.000663700545
   114    0.000091343924
   115   -0.000143427490
   116   -0.000322350616
   117   -0.001698253740
   118    0.001004429066
   119   -0.001312999191
   120    0.000398634123
   121   -0.000217759911
   122    0.000388922429
   123    0.003354023445
   124    0.003404904916
   125    0.003571739341
   126    0.000181174275
   127   -0.000024582510
   128    0.000083192930
   129    0.001317736032
   130    0.001343984892
   131    0.001444466319
   132    0.000013299915
   133   -0.000017560474
   134    0.000026431895
   135    0.000156821805
   136   -0.000095803428
   137    0.000092551652
   138    0.000222271519
   139   -0.000222305771
   140   -0.000222305771
   141   -0.000036512918
   142    0.000110054975
   143    0.000108590222
   144   -0.000001722105
Sym=        a    
Ene=     -1.66179
Spin=       Alpha
Occup=    2.00000
     1    0.047560434321
     2    0.058139330313
     3   -0.046103427934
     4   -0.052205409909
     5   -0.027981867004
     6    0.052944446999
     7    0.052859686032
     8    0.053001686789
     9    0.028707637598
    10    0.028761617678
    11    0.028640655910
    12    0.018299787306
    13    0.018362399499
    14    0.018239970141
    15   -0.037388694572
    16   -0.037368279922
    17   -0.037402476465
    18   -0.002785832590
    19   -0.002894837067
    20   -0.002839602976
    21   -0.021209571458
    22   -0.021320528622
    23   -0.021090219807
    24   -0.007976942176
    25   -0.008000153601
    26   -0.007988846679
    27    0.001246442475
    28    0.001257246346
    29    0.001233783227
    30    0.001188563090
    31    0.001173407681
    32    0.001173407681
    33    0.001184021867
    34    0.001171294375
    35    0.001202229125
    36    0.000093573513
    37    0.047238864607
    38    0.057730801301
    39   -0.045776621409
    40   -0.051853619561
    41   -0.027857234140
    42   -0.052077837385
    43   -0.052431880515
    44    0.053146424270
    45   -0.028289475755
    46   -0.028421790905
    47    0.028847885766
    48   -0.018097156081
    49   -0.018183533444
    50    0.018387817374
    51   -0.037073466272
    52   -0.037133701251
    53   -0.037197482439
    54   -0.002755169256
    55    0.002841830162
    56    0.002860962228
    57   -0.020961655923
    58   -0.021111936721
    59   -0.021167233370
    60   -0.007882177164
    61    0.008039583863
    62    0.008071992546
    63   -0.001203105803
    64   -0.001259699764
    65    0.001248921659
    66   -0.001186841094
    67   -0.001168281189
    68   -0.001168281189
    69   -0.001182752409
    70   -0.001190506858
    71    0.001205501526
    72    0.000110550300
    73    0.047881762945
    74    0.058548099522
    75   -0.046429386934
    76   -0.052559519360
    77   -0.028107576420
    78   -0.053792412996
    79    0.052697835769
    80   -0.053426146283
    81   -0.029128943296
    82    0.028549189433
    83   -0.028979236048
    84   -0.018504956923
    85    0.018211372105
    86   -0.018420468534
    87   -0.037700195723
    88   -0.037574696756
    89   -0.037637082613
    90    0.002834882467
    91   -0.002923323535
    92    0.002816234301
    93   -0.021456301625
    94   -0.021248233322
    95   -0.021300440764
    96    0.007932665499
    97   -0.008091308670
    98    0.007901232251
    99   -0.001287289921
   100    0.001242616980
   101   -0.001231933982
   102   -0.001190515405
   103    0.001175715338
   104    0.001175715338
   105   -0.001184698154
   106    0.001167804351
   107   -0.001183148995
   108    0.000074995869
   109    0.047556223706
   110    0.058134452762
   111   -0.046098603948
   112   -0.052201904446
   113   -0.027982151695
   114    0.052928900931
   115   -0.053281820524
   116   -0.052561741014
   117    0.028701421956
   118   -0.028845140241
   119   -0.028563303411
   120    0.018302878686
   121   -0.018384033758
   122   -0.018213100073
   123   -0.037383246294
   124   -0.037444166366
   125   -0.037320863308
   126    0.002858085692
   127    0.002820295597
   128   -0.002837924702
   129   -0.021206701442
   130   -0.021358760888
   131   -0.021052686897
   132    0.008019826608
   133    0.007955905210
   134   -0.007986536309
   135    0.001245958732
   136   -0.001301060153
   137   -0.001189095666
   138    0.001194907955
   139   -0.001193903694
   140   -0.001193903694
   141    0.001178438425
   142   -0.001166882421
   143   -0.001204826034
   144    0.000093012521
Sym=        a    
Ene=     -1.03993
Spin=       Alpha
Occup=    2.00000
     1   -0.057216191019
     2   -0.061635551076
     3    0.073434283086
     4    0.087956296365
     5    0.035886443332
     6   -0.018675664569
     7    0.076708946377
     8   -0.065222486108
     9   -0.011131709726
    10    0.071889421492
    11   -0.052279787206
    12    0.008918123646
    13    0.032976184917
    14   -0.002495947055
    15    0.054071284718
    16    0.048231401739
    17    0.056794980300
    18   -0.002637841216
    19    0.003496927450
    20   -0.000620812170
    21    0.039775992174
    22    0.025054950784
    23    0.046768020675
    24   -0.009881384450
    25    0.007738536234
    26   -0.004042699524
    27   -0.000390195235
    28    0.000901254766
    29   -0.000869372769
    30    0.001838519202
    31    0.000971172020
    32    0.000971172020
    33   -0.001623357111
    34   -0.000185909721
    35    0.001130207664
    36    0.000159048654
    37    0.061335114298
    38    0.066058137797
    39   -0.078683421790
    40   -0.094396917750
    41   -0.039006421672
    42   -0.021541786663
    43    0.072093842003
    44    0.056209454204
    45   -0.014387418029
    46    0.068505603156
    47    0.044923005465
    48    0.009129299982
    49    0.032538897314
    50   -0.000967581908
    51   -0.058021365491
    52   -0.052369002897
    53   -0.060104125126
    54    0.002309399502
    55    0.003186813491
    56   -0.000849831460
    57   -0.043062005096
    58   -0.028462028725
    59   -0.048326490463
    60    0.009040393737
    61    0.006887908034
    62   -0.004826416207
    63   -0.000321978604
    64    0.000790263308
    65    0.000717148039
    66    0.001737125240
    67    0.000800383401
    68    0.000800383401
    69   -0.001435829724
    70   -0.000052687901
    71   -0.001227377288
    72   -0.000221987530
    73   -0.033512554540
    74   -0.036110172649
    75    0.043009404455
    76    0.051467215739
    77    0.020884628480
    78    0.076188887669
    79    0.102252009567
    80    0.028538681082
    81    0.063274769711
    82    0.091860153107
    83    0.021777363995
    84    0.011219119714
    85    0.033917840522
    86   -0.000876845999
    87    0.035642605570
    88    0.024833634524
    89    0.032705094290
    90    0.001259164246
    91    0.004487558004
    92    0.003279481955
    93    0.033261644271
    94    0.006133615094
    95    0.025864901156
    96    0.004889576118
    97    0.011481180899
    98    0.010725244939
    99    0.001091793062
   100    0.001245045581
   101    0.000427846184
   102   -0.001440859630
   103   -0.000116703361
   104   -0.000116703361
   105    0.001716261330
   106    0.001025178679
   107   -0.002160600620
   108    0.000135705874
   109    0.029861696862
   110    0.032169216519
   111   -0.038267955983
   112   -0.045889839887
   113   -0.019019723828
   114    0.071007687337
   115    0.104585057724
   116   -0.036691163743
   117    0.060246321992
   118    0.094317092986
   119   -0.030066221631
   120    0.010684129385
   121    0.033465258377
   122   -0.002051474810
   123   -0.031897080596
   124   -0.021241258863
   125   -0.029826463035
   126   -0.001515157570
   127    0.004543369885
   128    0.003007692332
   129   -0.030235834951
   130   -0.002988047177
   131   -0.025002611459
   132   -0.005473814402
   133    0.012064684371
   134    0.009846586831
   135    0.000874808187
   136    0.001306827686
   137   -0.000472778267
   138   -0.001635918480
   139   -0.000049532119
   140   -0.000049532119
   141    0.001821934586
   142    0.000790409406
   143    0.002179255169
   144   -0.000097519275
Sym=        a    
Ene=     -1.03652
Spin=       Alpha
Occup=    2.00000
     1   -0.015681246591
     2   -0.016875953955
     3    0.020138659589
     4    0.024150935652
     5    0.009935872200
     6    0.113565411701
     7   -0.057501954209
     8   -0.056909067324
     9    0.100747332019
    10   -0.048843457463
    11   -0.049022610862
    12    0.032438341124
    13   -0.010900482457
    14   -0.010390559146
    15    0.007684930233
    16    0.018056439464
    17    0.017881327016
    18   -0.002441862805
    19   -0.002459126875
    20    0.004886725005
    21   -0.007186760455
    22    0.019090023348
    23    0.018783989640
    24   -0.007690466202
    25   -0.007663209047
    26    0.013535048900
    27    0.001408195767
    28   -0.000827079297
    29   -0.000652044641
    30    0.000409416006
    31    0.001950732189
    32    0.001950732189
    33    0.000368338213
    34   -0.002193933264
    35   -0.002207244810
    36    0.000053436350
    37    0.043401745556
    38    0.046696025611
    39   -0.055770481163
    40   -0.066928327007
    41   -0.027588202238
    42    0.085369470207
    43   -0.084611505495
    44    0.002999795826
    45    0.078222302103
    46   -0.071172412139
    47   -0.000872868421
    48    0.031827333924
    49   -0.010926023938
    50   -0.009887895788
    51   -0.035093612076
    52   -0.045301719758
    53   -0.040375344289
    54    0.000109249047
    55   -0.003618088314
    56    0.003704872397
    57   -0.015252273360
    58   -0.041234033628
    59   -0.028601442002
    60    0.001906631913
    61   -0.012187387301
    62    0.009027043042
    63    0.000972812016
    64   -0.001099892916
    65    0.000104886536
    66   -0.000608686628
    67    0.000971157409
    68    0.000971157409
    69    0.001398148466
    70   -0.001171393995
    71    0.001960048059
    72   -0.000152731732
    73    0.043198771173
    74    0.046500631343
    75   -0.055453215826
    76   -0.066441979565
    77   -0.027271197706
    78    0.085697135564
    79    0.002304608644
    80   -0.085881114205
    81    0.078462766811
    82   -0.001182730998
    83   -0.071556253549
    84    0.032240388997
    85   -0.009688879412
    86   -0.011188417771
    87   -0.034817467996
    88   -0.040155983355
    89   -0.045175542813
    90   -0.003663669026
    91    0.000073133766
    92    0.003691575844
    93   -0.014817919365
    94   -0.028452382452
    95   -0.041092828767
    96   -0.012148898472
    97    0.001905684545
    98    0.009071390751
    99    0.001058456075
   100    0.000076284562
   101   -0.001158727094
   102    0.001406414005
   103   -0.002223875100
   104   -0.002223875100
   105   -0.000616111184
   106    0.001937685282
   107   -0.001203406869
   108   -0.000142717606
   109   -0.070919369465
   110   -0.076320921637
   111    0.091083336508
   112    0.109222651034
   113    0.044929940983
   114    0.057490335664
   115    0.031453352840
   116    0.029908281487
   117    0.055876035400
   118    0.021714010425
   119    0.021083537082
   120    0.031643039571
   121   -0.009106366528
   122   -0.009658523973
   123    0.062225125505
   124    0.067616760709
   125    0.067452648594
   126    0.001266666792
   127    0.001296676603
   128    0.002506798261
   129    0.037263969467
   130    0.050833673280
   131    0.050671342203
   132    0.006354744439
   133    0.006438095304
   134    0.004560473485
   135    0.000630407980
   136    0.000538532809
   137    0.000421081521
   138    0.000403345821
   139   -0.001195477774
   140   -0.001195477774
   141    0.000403887575
   142    0.000942275768
   143    0.000927400526
   144    0.000242108865
Sym=        a    
Ene=     -1.03315
Spin=       Alpha
Occup=    2.00000
     1   -0.057003886959
     2   -0.061285830423
     3    0.073260653426
     4    0.087951560211
     5    0.036473916547
     6   -0.014678806351
     7   -0.063239036502
     8    0.078849556248
     9   -0.009232763797
    10   -0.051464142418
    11    0.073315442299
    12    0.010248881013
    13   -0.002327610353
    14    0.033846149969
    15    0.053729879196
    16    0.056730240884
    17    0.048193607760
    18    0.003247525406
    19   -0.002821108095
    20   -0.000751811376
    21    0.039504327977
    22    0.047061650323
    23    0.025329196272
    24    0.007423618893
    25   -0.010235788740
    26   -0.004261600892
    27   -0.000182695716
    28   -0.000897404246
    29    0.000901739974
    30   -0.001564967622
    31   -0.001126212171
    32   -0.001126212171