[Molden Format]
[Title]
 Molden file created by orca_2mkl for BaseName=./N4

[Atoms] AU
N    1   7         -1.2141710420         0.0000000000         1.1929116530 
N    2   7          1.3902700099        -0.8023365584         0.5821231050 
N    3   7         -0.5808226486        -0.8023365584        -1.3773975410 
N    4   7          0.4047236807         1.6046731167        -0.3976372170 
[GTO]
  1 0
s   6 1.0 
    19730.8006470000         0.6956035199
     2957.8958745000         1.2986099328
      673.2213359500         2.2190880635
      190.6824949400         3.4636607549
       62.2954418980         4.6967555531
       22.6541611820         4.9522510945
s   2 1.0 
        8.9791477428         2.3880677979
        3.6863002370         0.7337878750
s   1 1.0 
        0.8466007680         0.6290267082
s   1 1.0 
        0.3364713377         0.3148626514
s   1 1.0 
        0.1364765367         0.1600308040
p   4 1.0 
       49.2003805100         2.1264813968
       11.3467905370         2.3279367185
        3.4273972411         2.0485729192
        1.1785525134         1.2607319854
p   1 1.0 
        0.4164220497         0.4768230427
p   1 1.0 
        0.1426082601         0.1249168256
d   1 1.0 
        1.6540000000         6.8771297418
d   1 1.0 
        0.4690000000         0.7577440909
f   1 1.0 
        1.0930000000         6.9645882147

  2 0
s   6 1.0 
    19730.8006470000         0.6956035199
     2957.8958745000         1.2986099328
      673.2213359500         2.2190880635
      190.6824949400         3.4636607549
       62.2954418980         4.6967555531
       22.6541611820         4.9522510945
s   2 1.0 
        8.9791477428         2.3880677979
        3.6863002370         0.7337878750
s   1 1.0 
        0.8466007680         0.6290267082
s   1 1.0 
        0.3364713377         0.3148626514
s   1 1.0 
        0.1364765367         0.1600308040
p   4 1.0 
       49.2003805100         2.1264813968
       11.3467905370         2.3279367185
        3.4273972411         2.0485729192
        1.1785525134         1.2607319854
p   1 1.0 
        0.4164220497         0.4768230427
p   1 1.0 
        0.1426082601         0.1249168256
d   1 1.0 
        1.6540000000         6.8771297418
d   1 1.0 
        0.4690000000         0.7577440909
f   1 1.0 
        1.0930000000         6.9645882147

  3 0
s   6 1.0 
    19730.8006470000         0.6956035199
     2957.8958745000         1.2986099328
      673.2213359500         2.2190880635
      190.6824949400         3.4636607549
       62.2954418980         4.6967555531
       22.6541611820         4.9522510945
s   2 1.0 
        8.9791477428         2.3880677979
        3.6863002370         0.7337878750
s   1 1.0 
        0.8466007680         0.6290267082
s   1 1.0 
        0.3364713377         0.3148626514
s   1 1.0 
        0.1364765367         0.1600308040
p   4 1.0 
       49.2003805100         2.1264813968
       11.3467905370         2.3279367185
        3.4273972411         2.0485729192
        1.1785525134         1.2607319854
p   1 1.0 
        0.4164220497         0.4768230427
p   1 1.0 
        0.1426082601         0.1249168256
d   1 1.0 
        1.6540000000         6.8771297418
d   1 1.0 
        0.4690000000         0.7577440909
f   1 1.0 
        1.0930000000         6.9645882147

  4 0
s   6 1.0 
    19730.8006470000         0.6956035199
     2957.8958745000         1.2986099328
      673.2213359500         2.2190880635
      190.6824949400         3.4636607549
       62.2954418980         4.6967555531
       22.6541611820         4.9522510945
s   2 1.0 
        8.9791477428         2.3880677979
        3.6863002370         0.7337878750
s   1 1.0 
        0.8466007680         0.6290267082
s   1 1.0 
        0.3364713377         0.3148626514
s   1 1.0 
        0.1364765367         0.1600308040
p   4 1.0 
       49.2003805100         2.1264813968
       11.3467905370         2.3279367185
        3.4273972411         2.0485729192
        1.1785525134         1.2607319854
p   1 1.0 
        0.4164220497         0.4768230427
p   1 1.0 
        0.1426082601         0.1249168256
d   1 1.0 
        1.6540000000         6.8771297418
d   1 1.0 
        0.4690000000         0.7577440909
f   1 1.0 
        1.0930000000         6.9645882147

[5D]
[9G]
[MO]
 Sym=     1a
 Ene= -1.57508684066186E+01
 Spin= Alpha
 Occup= 2.000000
  1      -0.226352432302
  2      -0.317568328937
  3      -0.009884052119
  4       0.002903354142
  5      -0.000605481468
  6      -0.001409540107
  7       0.000000325495
  8       0.001408734067
  9       0.000576178536
 10       0.000005506498
 11      -0.000495294182
 12      -0.000198907656
 13      -0.000000299831
 14       0.000193504519
 15      -0.000073617222
 16       0.000239437629
 17      -0.000001944946
 18      -0.000117182116
 19      -0.000001328197
 20       0.000036496050
 21      -0.000223258079
 22      -0.000009099731
 23       0.000126869560
 24      -0.000004462650
 25       0.000009312452
 26       0.000019167607
 27      -0.000023980180
 28      -0.000024735058
 29      -0.000031722156
 30      -0.000011156902
 31       0.000031806148
 32      -0.215704949512
 33      -0.302632937461
 34      -0.009309989310
 35       0.002432244424
 36      -0.000553872399
 37       0.001529839781
 38      -0.000887001116
 39       0.000650329539
 40      -0.000392771821
 41       0.000263546257
 42      -0.000154767681
 43       0.000222613880
 44      -0.000131787297
 45       0.000093673822
 46       0.000084164969
 47      -0.000131166028
 48       0.000074150688
 49      -0.000101685174
 50       0.000175031292
 51      -0.000064582168
 52       0.000074418968
 53      -0.000056102729
 54       0.000052311952
 55      -0.000124143152
 56       0.000024341184
 57      -0.000016752520
 58      -0.000033401305
 59       0.000015952300
 60       0.000012734939
 61       0.000010618018
 62      -0.000020962963
 63      -0.232916092181
 64      -0.326774673631
 65      -0.010248244698
 66       0.003212489769
 67      -0.000641745157
 68      -0.000697257198
 69      -0.000973600415
 70      -0.001680426096
 71       0.000346523187
 72       0.000420022077
 73       0.000756306146
 74      -0.000096462085
 75      -0.000130415418
 76      -0.000228563420
 77      -0.000141314072
 78      -0.000132327197
 79      -0.000189803890
 80       0.000027798023
 81      -0.000078407163
 82       0.000151999257
 83       0.000166660094
 84       0.000200483168
 85      -0.000018154991
 86       0.000085621048
 87       0.000001626598
 88       0.000011374995
 89       0.000040133924
 90       0.000027304524
 91       0.000017533639
 92       0.000029809187
 93       0.000027353671
 94      -0.223108645886
 95      -0.313017766844
 96      -0.009715506937
 97       0.002768337377
 98      -0.000592391051
 99       0.000466327888
100       0.001849965911
101      -0.000459056841
102      -0.000112984294
103      -0.000647783788
104       0.000199104202
105       0.000062260220
106       0.000261878947
107      -0.000068280784
108       0.000114065717
109       0.000026681106
110       0.000101553599
111       0.000197241532
112      -0.000109712798
113      -0.000098762834
114      -0.000019581973
115      -0.000115150546
116      -0.000172400395
117       0.000061381399
118      -0.000042207241
119      -0.000027827176
120       0.000011988049
121       0.000000155987
122      -0.000013526371
123      -0.000020545039
124      -0.000017532784
 Sym=     1a
 Ene= -1.57499543571802E+01
 Spin= Alpha
 Occup= 2.000000
  1      -0.124751017307
  2      -0.175009951268
  3      -0.006452267942
  4       0.005311044922
  5      -0.000408526753
  6      -0.000869812222
  7      -0.000056058296
  8       0.000778025136
  9       0.000998445147
 10      -0.001391148241
 11      -0.003154329755
 12       0.000058812048
 13       0.000036272886
 14      -0.000003661847
 15       0.000085802561
 16       0.000101375533
 17       0.000096637504
 18      -0.000075687396
 19      -0.000048466833
 20       0.001161357255
 21      -0.000633359854
 22       0.000834273875
 23       0.000133046866
 24      -0.000380222894
 25      -0.000176683988
 26       0.000165093096
 27      -0.000158357582
 28      -0.000012340227
 29       0.000134201162
 30      -0.000001912178
 31       0.000060604917
 32      -0.069529770904
 33      -0.097541656035
 34      -0.003571948981
 35       0.002857693653
 36      -0.000241825906
 37       0.000513552914
 38      -0.000366146941
 39       0.000167790769
 40      -0.001575329143
 41      -0.000801643954
 42      -0.001933915074
 43      -0.000001883878
 44       0.000047413807
 45       0.000027746954
 46       0.000092438325
 47       0.000080845195
 48       0.000046156277
 49       0.000041879234
 50       0.000103389227
 51       0.000478003560
 52       0.001153548158
 53       0.000150605315
 54       0.000701162564
 55       0.000223091976
 56       0.000049384529
 57      -0.000183083191
 58       0.000043984262
 59      -0.000225178873
 60       0.000007758126
 61       0.000138441588
 62       0.000002746979
 63       0.376509474614
 64       0.528187690677
 65       0.019653657709
 66      -0.016396888723
 67       0.001325899284
 68       0.001210433575
 69       0.001660279839
 70       0.002896462990
 71      -0.002929838605
 72      -0.004656453302
 73      -0.007207052548
 74      -0.000043640220
 75      -0.000048631745
 76      -0.000102572367
 77       0.000165662556
 78       0.000157546525
 79       0.000189474421
 80      -0.000006898137
 81       0.000071807627
 82      -0.001224571050
 83      -0.001185771367
 84      -0.001923054860
 85       0.000431516485
 86      -0.000864786104
 87      -0.000002026590
 88      -0.000065954332
 89      -0.000187437308
 90       0.000021303906
 91      -0.000133546114
 92      -0.000119439851
 93      -0.000061572152
 94      -0.199271648989
 95      -0.279550417988
 96      -0.010324211516
 97       0.008411746595
 98      -0.000715428921
 99       0.000429683129
100       0.001748630870
101      -0.000509088203
102      -0.001433816846
103      -0.004718357138
104      -0.000697117055
105      -0.000002128540
106      -0.000034898287
107       0.000050515167
108       0.000043793303
109       0.000064811138
110       0.000182335112
111       0.000083348304
112      -0.000018872412
113      -0.000763784899
114       0.000296932437
115       0.000474934959
116      -0.001302521488
117       0.000922098819
118       0.000080063973
119       0.000028567774
120       0.000137943774
121       0.000107097349
122      -0.000116483676
123      -0.000189280524
124      -0.000119641743
 Sym=     1a
 Ene= -1.57499428612458E+01
 Spin= Alpha
 Occup= 2.000000
  1       0.366345322160
  2       0.513929589527
  3       0.019068270561
  4      -0.015752227980
  5       0.001290435698
  6       0.002434749945
  7      -0.000023516598
  8      -0.002439028051
  9      -0.006391861902
 10      -0.000589267267
 11       0.005898035380
 12      -0.000070827670
 13       0.000014833284
 14       0.000085383427
 15       0.000102611721
 16      -0.000249234428
 17       0.000036632754
 18       0.000124862051
 19      -0.000024902426
 20      -0.000411845390
 21       0.002340724557
 22       0.000296195754
 23      -0.001157503636
 24      -0.000218891364
 25      -0.000098897968
 26      -0.000130662562
 27       0.000008229365
 28       0.000169823254
 29       0.000130898949
 30       0.000061074643
 31      -0.000036068935
 32      -0.128017886255
 33      -0.179590387297
 34      -0.006623525746
 35       0.005314629596
 36      -0.000477423717
 37       0.000933284222
 38      -0.000601504051
 39       0.000466357130
 40      -0.003471812843
 41       0.000464637770
 42       0.000372836305
 43       0.000011624147
 44       0.000033669016
 45      -0.000038093977
 46       0.000005486062
 47      -0.000127293508
 48       0.000091374816
 49       0.000076574380
 50       0.000068207946
 51      -0.000500606315
 52      -0.000224115035
 53       0.000263551316
 54       0.001323300743
 55      -0.000611147860
 56      -0.000073096997
 57       0.000119785729
 58      -0.000050177107
 59       0.000001777421
 60      -0.000088017142
 61       0.000196490858
 62      -0.000191484021
 63      -0.021553263669
 64      -0.030237482063
 65      -0.001106938916
 66       0.000941093330
 67      -0.000042496734
 68      -0.000137513570
 69      -0.000119211454
 70      -0.000117543723
 71      -0.001581109497
 72      -0.000391836373
 73       0.001531578982
 74       0.000050754925
 75       0.000022062113
 76      -0.000011411615
 77       0.000107248414
 78      -0.000110073534
 79       0.000003962036
 80       0.000017187874
 81      -0.000064635320
 82       0.001049876959
 83      -0.000801903479
 84       0.000244215216
 85       0.000145675853
 86      -0.000447456529
 87       0.000225036870
 88      -0.000107511957
 89       0.000158395758
 90      -0.000028051039
 91      -0.000123105201
 92      -0.000064027849
 93      -0.000005128307
 94      -0.225399259346
 95      -0.316203269644
 96      -0.011702616246
 97       0.009597974055
 98      -0.000792213038
 99       0.000446899329
100       0.002018848598
101      -0.000461753568
102      -0.002656278007
103      -0.004411837091
104       0.002118699313
105       0.000021519834
106      -0.000073037976
107      -0.000004749214
108       0.000106543535
109      -0.000060037146
110       0.000029404023
111       0.000189148238
112       0.000009682724
113      -0.000414325704
114      -0.000834495475
115      -0.000944234892
116      -0.000676682824
117       0.001290994874
118      -0.000133155618
119      -0.000043378658
120      -0.000022385006
121      -0.000022227840
122       0.000192607186
123      -0.000193916508
124       0.000049119897
 Sym=     1a
 Ene= -1.57499182174390E+01
 Spin= Alpha
 Occup= 2.000000
  1       0.028998026156
  2       0.040678100038
  3       0.001539811212
  4      -0.001274390901
  5       0.000129982379
  6       0.000159061050
  7       0.000057987832
  8      -0.000236461286
  9      -0.001520046246
 10       0.001511619430
 11      -0.000537282056
 12       0.000021744741
 13      -0.000033630992
 14       0.000023877072
 15       0.000082892811
 16      -0.000040167616
 17      -0.000053331039
 18      -0.000070472609
 19       0.000103949221
 20       0.000584723908
 21       0.000007877077
 22      -0.000433277934
 23      -0.000792892813
 24       0.000892318879
 25      -0.000069644529
 26       0.000146793572
 27       0.000010978046
 28       0.000084904181
 29      -0.000162873438
 30       0.000139686904
 31      -0.000170297133
 32      -0.366194360483
 33      -0.513719981060
 34      -0.018973169370
 35       0.015482958382
 36      -0.001266446778
 37       0.002804016867
 38      -0.001592741716
 39       0.001170622254
 40      -0.006478813481
 41       0.004612022882
 42      -0.003183277178
 43      -0.000097802590
 44       0.000034812523
 45      -0.000032296741
 46       0.000090840664
 47      -0.000136177105
 48       0.000055974906
 49      -0.000163150891
 50       0.000184813176
 51      -0.000885030167
 52       0.001331914794
 53      -0.000958892818
 54       0.000541645283
 55      -0.001799372709
 56       0.000163343393
 57      -0.000011603824
 58      -0.000098487073
 59       0.000012216977
 60       0.000162638125
 61      -0.000055894524
 62      -0.000122277056
 63       0.073296040796
 64       0.102822911501
 65       0.003853761226
 66      -0.003278087200
 67       0.000249505058
 68       0.000195525013
 69       0.000395090974
 70       0.000542708741
 71      -0.001647815950
 72       0.000874726437
 73      -0.002054965787
 74       0.000014288280
 75      -0.000052617344
 76      -0.000015068428
 77      -0.000015547948
 78      -0.000059360269
 79       0.000101566433
 80      -0.000108283863
 81       0.000061810985
 82      -0.000635582926
 83      -0.001003062104
 84       0.000148309264
 85      -0.000829401622
 86       0.000259390061
 87      -0.000049449578
 88      -0.000183729795
 89      -0.000028801179
 90      -0.000229872634
 91       0.000023519344
 92       0.000120102743
 93       0.000044687127
 94       0.248105982357
 95       0.348056546064
 96       0.012937720761
 97      -0.010761597173
 98       0.000850208750
 99      -0.000611673130
100      -0.002193409175
101       0.000524408924
102      -0.000087926407
103       0.005837906440
104      -0.001985799714
105       0.000059551998
106       0.000077709820
107      -0.000007672046
108      -0.000072795747
109      -0.000049826973
110      -0.000019540348
111      -0.000119862845
112       0.000181652963
113       0.000862236156
114      -0.000095473594
115       0.001173265781
116       0.001484684868
117       0.000185410087
118       0.000166522095
119       0.000045637075
120      -0.000077837724
121       0.000148040133
122       0.000068988650
123      -0.000088747571
124       0.000150555892
 Sym=     1a
 Ene= -1.65309066240256E+00
 Spin= Alpha
 Occup= 2.000000
  1       0.045753169024
  2       0.105596204344
  3      -0.149058294211
  4      -0.178961933866
  5      -0.018322719533
  6      -0.059622012362
  7       0.000010051330
  8       0.060086848855
  9      -0.051056661020
 10       0.000003619173
 11       0.051181840998
 12      -0.003265602719
 13       0.000000855296
 14       0.003265562093
 15      -0.002054883035
 16       0.006852612061
 17      -0.000051076554
 18      -0.003381238461
 19      -0.000047701965
 20      -0.004521670398
 21       0.015647052960
 22      -0.000076745206
 23      -0.007819757377
 24      -0.000074207468
 25      -0.000541366796
 26      -0.002055568243
 27       0.001023970322
 28       0.002145365392
 29       0.001209445554
 30       0.000870286667
 31      -0.001183926686
 32       0.045444560031
 33       0.104884855955
 34      -0.148173395557
 35      -0.177576870760
 36      -0.018422661542
 37       0.068231011683
 38      -0.039555695023
 39       0.029195663514
 40       0.058172467879
 41      -0.033736471627
 42       0.024793939278
 43       0.003804093182
 44      -0.002169094850
 45       0.001606648954
 46       0.002541108606
 47      -0.003881106260
 48       0.002224702460
 49      -0.002961358623
 50       0.005187692885
 51       0.005787807973
 52      -0.008717902621
 53       0.005009757764
 54      -0.006752499118
 55       0.011800534548
 56      -0.001848993019
 57       0.000324126074
 58       0.001595391348
 59       0.000080835708
 60      -0.001518507517
 61      -0.000598897042
 62       0.002222619979
 63       0.046061413552
 64       0.106306300463
 65      -0.149928138167
 66      -0.180389083151
 67      -0.018207339495
 68      -0.028624081606
 69      -0.040245075669
 70      -0.069402832229
 71      -0.024601385872
 72      -0.034434627130
 73      -0.059403592038
 74      -0.001547571756
 75      -0.002183260335
 76      -0.003701920742
 77      -0.003941914950
 78      -0.003727825814
 79      -0.005315790753
 80       0.000725057745
 81      -0.002187266247
 82      -0.009025553875
 83      -0.008667079105
 84      -0.012194853816
 85       0.001666921712
 86      -0.005069630193
 87      -0.000270890606
 88      -0.001094975971
 89      -0.002659643642
 90      -0.000625649041
 91      -0.001488294316
 92      -0.001413813749
 93      -0.000971814514
 94       0.045748991014
 95       0.105586315711
 96      -0.149039181493
 97      -0.178964963842
 98      -0.018315427535
 99       0.020217212099
100       0.079791773935
101      -0.019673164599
102       0.017207128818
103       0.068161203669
104      -0.016871455795
105       0.001136635196
106       0.004352247290
107      -0.001038670058
108       0.003342468297
109       0.000760375083
110       0.003000458784
111       0.005681630763
112      -0.003087687515
113       0.007592889543
114       0.001738220423
115       0.006886260888
116       0.013002923415
117      -0.007022207562
118       0.002119937835
119       0.000844548658
120      -0.001324956638
121       0.000490450802
122       0.000125449839
123       0.001996441860
124       0.001607088498
 Sym=     1a
 Ene= -1.04440346910701E+00
 Spin= Alpha
 Occup= 2.000000
  1      -0.056238805777
  2      -0.131905130538
  3       0.194250512277
  4       0.311925153783
  5       0.096449558055
  6      -0.069634415980
  7      -0.018939747812
  8      -0.061279083212
  9      -0.035263099772
 10      -0.015834033080
 11      -0.075389422655
 12      -0.008082077280
 13      -0.002752941780
 14      -0.011316723288
 15       0.008046006274
 16       0.000739771297
 17       0.002532635320
 18      -0.004723327168
 19      -0.000175756582
 20       0.017154780212
 21      -0.009145731148
 22       0.004829244391
 23      -0.002928781916
 24       0.000197071502
 25      -0.002437554508
 26       0.002591386549
 27      -0.001571679632
 28       0.000658439409
 29      -0.000096483568
 30       0.001013997918
 31       0.000449708693
 32       0.060191308438
 33       0.141169014088
 34      -0.207959846082
 35      -0.333827837630
 36      -0.103422204122
 37      -0.055769339187
 38      -0.060289811184
 39       0.029372864810
 40      -0.018154815748
 41      -0.067840810009
 42       0.037312395409
 43      -0.005451581527
 44      -0.010572333033
 45       0.005611779019
 46      -0.000990367620
 47      -0.000905242084
 48       0.003722627940
 49       0.007835053969
 50       0.001541580172
 51       0.002918329472
 52      -0.008107521690
 53       0.010329583796
 54       0.009002583784
 55       0.011006323520
 56      -0.001377603044
 57       0.001218499245
 58       0.000745227140
 59      -0.001380345568
 60      -0.001709731377
 61       0.002373849335
 62      -0.000491690828
 63      -0.033172639176
 64      -0.077806379667
 65       0.114497314909
 66       0.184237918489
 67       0.056740001242
 68      -0.113410804656
 69       0.005057198588
 70       0.039848455938
 71      -0.089007331254
 72       0.013664940496
 73       0.049712274830
 74      -0.016052942810
 75       0.001592054903
 76       0.007315472403
 77       0.006161271920
 78      -0.009096854409
 79       0.002538954313
 80      -0.002939708258
 81      -0.003918045879
 82       0.014408608240
 83      -0.012942965418
 84       0.009315277444
 85      -0.005383853089
 86      -0.004341725769
 87       0.002684228056
 88      -0.002173210809
 89       0.002393183110
 90      -0.001667961620
 91      -0.001736169790
 92       0.000135921966
 93       0.001091100645
 94       0.029697314217
 95       0.069649578479
 96      -0.102469664658
 97      -0.165216755855
 98      -0.050867006246
 99      -0.118480689921
100       0.023172963131
101      -0.011564650375
102      -0.095915481944
103       0.036534244987
104      -0.013981310737
105      -0.017081160460
106       0.004986296985
107      -0.002101327109
108       0.000553170364
109      -0.003821117168
110       0.002317803822
111       0.004152117166
112       0.010748631939
113       0.004211577774
114      -0.006634949047
115       0.006840026762
116       0.011624434221
117       0.016386913699
118       0.000991576771
119       0.000850854395
120      -0.000481095654
121       0.001419601417
122       0.002147580997
123      -0.003239405020
124       0.002466887390
 Sym=     1a
 Ene= -1.04102959212984E+00
 Spin= Alpha
 Occup= 2.000000
  1      -0.015944318496
  2      -0.037398108926
  3       0.055042912250
  4       0.088818171697
  5       0.027731262163
  6      -0.001301629530
  7       0.128345725555
  8       0.001818314317
  9       0.005560914251
 10       0.108611989133
 11      -0.005484875522
 12       0.000438217750
 13       0.019067421733
 14      -0.000473042798
 15      -0.001065840816
 16      -0.000918473451
 17      -0.009049217205
 18      -0.001756852337
 19       0.009098436333
 20      -0.001289401404
 21      -0.005083179774
 22      -0.015911392002
 23      -0.002295956464
 24       0.016028738388
 25       0.000840722649
 26       0.000440578948
 27       0.001733131809
 28       0.000104862215
 29      -0.004216954464
 30       0.000800002574
 31      -0.002295323517
 32       0.042860452058
 33       0.100530215107
 34      -0.148115078465
 35      -0.238199504315
 36      -0.074741728063
 37       0.032871340404
 38       0.098119661172
 39       0.039842575135
 40       0.048659518494
 41       0.070902280901
 42       0.042586963774
 43       0.007054344391
 44       0.013326196053
 45       0.006890003895
 46      -0.003664735028
 47      -0.004720979321
 48      -0.002842365142
 49      -0.007246635759
 50      -0.005516696741
 51      -0.003849352245
 52      -0.012920142751
 53      -0.002923066085
 54      -0.016257006324
 55      -0.003175974288
 56      -0.000402966940
 57       0.001825131939
 58      -0.000341310060
 59       0.002456845714
 60       0.000502320991
 61      -0.003362522127
 62       0.000283741442
 63       0.042646577057
 64       0.100030445088
 65      -0.147088347666
 66      -0.238026382397
 67      -0.073964641003
 68      -0.039773555567
 69       0.099016759238
 70      -0.033436687057
 71      -0.042491504662
 72       0.071493873050
 73      -0.049595990180
 74      -0.006714418300
 75       0.013507426205
 76      -0.007026042169
 77      -0.004527444369
 78      -0.004686271368
 79       0.005544365890
 80      -0.006889591539
 81       0.002848529145
 82      -0.012401143664
 83      -0.012881262226
 84       0.003177078466
 85      -0.011580412139
 86       0.002952272264
 87      -0.001595955821
 88      -0.002109514300
 89      -0.000225509107
 90      -0.003565742874
 91       0.000497765710
 92       0.001208588558
 93       0.000403751575
 94      -0.069563328787
 95      -0.163163810795
 96       0.240161267382
 97       0.387417538221
 98       0.120979829036
 99      -0.042968635698
100       0.031420705724
101       0.041923300606
102      -0.046373473020
103      -0.013158950579
104       0.045341290714
105      -0.007370961264
106       0.000677202459
107       0.007235551942
108       0.002140667583
109      -0.003114688948
110      -0.002987995495
111       0.003823242408
112       0.003087908021
113      -0.002629903106
114      -0.007382083452
115      -0.010963699949
116      -0.004277267901
117       0.011245354841
118      -0.001760352483
119      -0.000864491615
120      -0.000794518423
121      -0.000168218272
122       0.001279655593
123      -0.001514697188
124       0.001117290044
 Sym=     1a
 Ene= -1.03770498110350E+00
 Spin= Alpha
 Occup= 2.000000
  1      -0.056078256643
  2      -0.131539767655
  3       0.193513779613
  4       0.313600781531
  5       0.098898692755
  6       0.058641704691
  7      -0.017508397808
  8       0.072225380670
  9       0.074229223949
 10      -0.015013988715
 11       0.036649635968
 12       0.011335160095
 13      -0.002663732701
 14       0.008157180542
 15      -0.008048117282
 16       0.000991026974
 17       0.000118398137
 18       0.004417233200
 19      -0.002330529347
 20      -0.011079151497
 21      -0.008971367490
 22      -0.000180992893
 23       0.013322878129
 24      -0.004628120431
 25       0.002317498596
 26      -0.001998594934
 27      -0.000141632674
 28      -0.001356238113
 29      -0.000088519728
 30      -0.001491626496
 31       0.001519123388
 32      -0.033554019984
 33      -0.078704122912
 34       0.115874265061
 35       0.187364305633
 36       0.059307079709
 37      -0.037756196177
 38       0.004996496849
 39       0.112173725395
 40      -0.048830191950
 41       0.013901911550
 42       0.088071118712
 43      -0.007511330086
 44       0.001815368839
 45       0.016069100584
 46      -0.005575548367
 47      -0.008825228733
 48       0.003788830752
 49       0.003657647052
 50      -0.002431294187
 51      -0.011950642839
 52      -0.012468316935
 53       0.004143794528
 54       0.009654409955
 55      -0.009295120694
 56      -0.001140569005
 57       0.003008113244
 58      -0.001674914225
 59       0.001702272394
 60      -0.001632535800
 61       0.001077806268
 62      -0.001990428380
 63       0.060152709175
 64       0.141103327684
 65      -0.207512731700
 66      -0.336421397202
 67      -0.105878027333
 68      -0.028843183643
 69      -0.059990853133
 70       0.058875395049
 71      -0.036862692510
 72      -0.068338744591
 73       0.019554244273
 74      -0.005532846746
 75      -0.010749006053
 76       0.005625619303
 77       0.007371370716
 78      -0.000819467297
 79      -0.001455065870
 80       0.003080232680
 81      -0.003707483508
 82       0.006330308661
 83      -0.007920050125
 84      -0.011169342897
 85       0.007145798107
 86      -0.010302965416
 87       0.002604196119
 88       0.000346932421
 89       0.000278573378
 90       0.000518464175
 91      -0.001634080668
 92      -0.001915037062
 93      -0.000823149525
 94       0.028999016014
 95       0.068025036666
 96      -0.100174769454
 97      -0.161658244416
 98      -0.051203036023
 99       0.011448727699
100       0.022193922349
101       0.120316229707
102       0.013874200696
103       0.035387790114
104       0.097787971926
105       0.002158375047
106       0.005119507374
107       0.017554914622
108       0.003222322719
109      -0.003876284711
110      -0.010806359751
111       0.002530172089
112      -0.002330262888
113       0.007815211474
114      -0.006708568820
115      -0.016666923096
116       0.009268001557
117      -0.006825011332
118      -0.002131699738
119      -0.000539194704
120      -0.002239425859
121      -0.002646066868
122       0.002163850480
123       0.001645770525
124       0.001041886768
 Sym=     1a
 Ene= -6.85900794219484E-01
 Spin= Alpha
 Occup= 2.000000
  1      -0.022506187171
  2      -0.053710368985
  3       0.093435920431
  4       0.130000637966
  5       0.105888616732
  6      -0.140939851020
  7      -0.000001149861
  8       0.138631291856
  9      -0.124623081327
 10      -0.000002983123
 11       0.122158541343