Process 0 of 1 is on He - thread support 0
initial socket setup ...start
initial socket setup ...done 
now start server 0 ... 
He 127.0.1
Q-Chem Developer Version! Running on 127.0.1.*
                  Welcome to Q-Chem
     A Quantum Leap Into The Future Of Chemistry


 Q-Chem 4.4, Q-Chem, Inc., Pleasanton, CA (2016)

 Y. Shao,  Z. Gan,  E. Epifanovsky,  A. T. B. Gilbert,  M. Wormit,  
 J. Kussmann,  A. W. Lange,  A. Behn,  J. Deng,  X. Feng,  D. Ghosh,  
 M. Goldey,  P. R. Horn,  L. D. Jacobson,  I. Kaliman,  F.Rob,  
 R. Z. Khaliullin,  T. Kus,  A. Landau,  J. Liu,  E. I. Proynov,  Y. M. Rhee,  
 R. M. Richard,  M. A. Rohrdanz,  R. P. Steele,  E. J. Sundstrom,  
 H. L. Woodcock III,  P. M. Zimmerman,  D. Zuev,  B. Albrecht,  E. Alguire,  
 B. Austin,  S. A. Baeppler,  G. J. O. Beran,  Y. A. Bernard,  E. Berquist,  
 K. Brandhorst,  K. B. Bravaya,  S. T. Brown,  D. Casanova,  C.-M. Chang,  
 Y. Chen,  S. H. Chien,  K. D. Closser,  M. P. Coons,  D. L. Crittenden,  
 S. Dasgupta,  M. Diedenhofen,  R. A. DiStasio Jr.,  H. Do,  A. D. Dutoi,  
 R. G. Edgar,  P.-T. Fang,  S. Fatehi,  Q. Feng,  L. Fusti-Molnar,  
 A. Ghysels,  A. Golubeva-Zadorozhnaya,  J. Gomes,  A. Gunina,  
 M. W. D. Hanson-Heine,  P. H. P. Harbach,  A. W. Hauser,  J. E. Herr,  
 E. G. Hohenstein,  Z. C. Holden,  K. Hui,  T.-C. Jagau,  H. Ji,  B. Kaduk,  
 K. Khistyaev,  Jaehoon Kim,  Jihan Kim,  R. A. King,  P. Klunzinger,  
 K. Koh,  D. Kosenkov,  T. Kowalczyk,  C. M. Krauter,  A. Kunitsa,  
 K. U. Lao,  A. Laurent,  K. V. Lawler,  J. Lee,  D. Lefrancois,  S. Lehtola,  
 S. V. Levchenko,  C. Y. Lin,  Y.-S. Lin,  F. Liu,  E. Livshits,  
 R. C. Lochan,  A. Luenser,  P. Manohar,  S. F. Manzer,  S.-P. Mao,  Y. Mao,  
 N. Mardirossian,  A. V. Marenich,  L. A. Martinez-Martinez,  S. A. Maurer,  
 N. J. Mayhall,  J.-M. Mewes,  A. F. Morrison,  K. Nanda,  T. S. Nguyen-Beck,  
 C. M. Oana,  R. Olivares-Amaya,  D. P. O'Neill,  J. A. Parkhill,  
 T. M. Perrine,  R. Peverati,  P. A. Pieniazek,  F. Plasser,  A. Prociuk,  
 D. R. Rehn,  E. Rosta,  N. J. Russ,  N. Sergueev,  S. M. Sharada,  
 S. Sharma,  D. W. Small,  A. Sodt,  T. Stauch,  T. Stein,  D. Stuck,  
 Y.-C. Su,  A. J. W. Thom,  T. Tsuchimochi,  L. Vogt,  O. Vydrov,  T. Wang,  
 M. A. Watson,  J. Wenzel,  A. White,  C. F. Williams,  V. Vanovschi,  
 K. Yao,  S. Yeganeh,  S. R. Yost,  Z.-Q. You,  I. Y. Zhang,  X. Zhang,  
 Y. Zhao,  B. R. Brooks,  G. K. L. Chan,  D. M. Chipman,  C. J. Cramer,  
 W. A. Goddard III,  M. S. Gordon,  W. J. Hehre,  A. Klamt,  
 H. F. Schaefer III,  M. W. Schmidt,  C. D. Sherrill,  D. G. Truhlar,  
 A. Warshel,  X. Xu,  A. Aspuru-Guzik,  R. Baer,  A. T. Bell,  N. A. Besley,  
 J.-D. Chai,  A. Dreuw,  B. D. Dunietz,  T. R. Furlani,  S. R. Gwaltney,  
 C.-P. Hsu,  Y. Jung,  J. Kong,  D. S. Lambrecht,  W. Liang,  C. Ochsenfeld,  
 V. A. Rassolov,  L. V. Slipchenko,  J. E. Subotnik,  T. Van Voorhis,  
 J. M. Herbert,  A. I. Krylov,  P. M. W. Gill,  M. Head-Gordon

 Contributors to earlier versions of Q-Chem not listed above: 
 R. D. Adamson,  J. Baker,  E. F. C. Byrd,  A. K. Chakraborty,  C.-L. Cheng,  
 H. Dachsel,  R. J. Doerksen,  G. Hawkins,  A. Heyden,  S. Hirata,  
 G. Kedziora,  F. J. Keil,  C. Kelley,  P. P. Korambath,  W. Kurlancheek,  
 A. M. Lee,  M. S. Lee,  D. Liotard,  I. Lotan,  P. E. Maslen,  N. Nair,  
 D. Neuhauser,  R. Olson,  B. Peters,  J. Ritchie,  N. E. Schultz,  
 N. Shenvi,  A. C. Simmonett,  K. S. Thanthiriwatte,  Q. Wu,  W. Zhang

 Please cite Q-Chem as follows:
 Y. Shao et al., Mol. Phys. 113, 184-215 (2015)
 DOI: 10.1080/00268976.2014.952696

 Q-Chem 4.4.1 for Intel X86 EM64T Linux

 Parts of Q-Chem use Armadillo 5.200.1 (Boston Tea Smuggler).
 http://arma.sourceforge.net/

 Q-Chem begins on Wed May 17 06:31:44 2017  


Host: 0

     Scratch files written to /home/vladimir/scratch/qchem20199//
 Parallel job on  1  processors

Checking the input file for inconsistencies... 	...done.

--------------------------------------------------------------
User input:
--------------------------------------------------------------
$comment0
$end

$rem
SYMMETRY              false
SYM_IGNORE            true
BASIS                 general
METHOD                HF
SCF_CONVERGENCE       8
MOLDEN_FORMAT         true
PRINT_ORBITALS        1000
$end

$basis
N     0 
S   5   1.00
   1712.8415853             -0.53934125305E-02      
    257.64812677            -0.40221581118E-01      
     58.458245853           -0.17931144990    
     16.198367905           -0.46376317823    
      5.0052600809          -0.44171422662    
S   1   1.00
      0.58731856571          1.0000000        
S   1   1.00
      0.18764592253          1.0000000        
P   3   1.00
     13.571470233           -0.40072398852E-01      
      2.9257372874          -0.21807045028    
      0.79927750754         -0.51294466049    
P   1   1.00
      0.21954348034          1.0000000        
D   1   1.00
      1.0000000              1.0000000        
****
$end

$molecule
   0 1
   N       0.5200      0.5300      0.5100
   N      -0.5200     -0.5200      0.5200
   N      -0.5200      0.5200     -0.5200
   N       0.5200     -0.5200     -0.5200
$end
--------------------------------------------------------------
 ----------------------------------------------------------------
             Standard Nuclear Orientation (Angstroms)
    I     Atom           X                Y                Z
 ----------------------------------------------------------------
    1      N       0.5200000000     0.5300000000     0.5100000000
    2      N      -0.5200000000    -0.5200000000     0.5200000000
    3      N      -0.5200000000     0.5200000000    -0.5200000000
    4      N       0.5200000000    -0.5200000000    -0.5200000000
 ----------------------------------------------------------------
 Nuclear Repulsion Energy =   105.7779404621 hartrees
 There are       14 alpha and       14 beta electrons

 Q-Chem warning in module /home/peve/qchem/forms1/BasisType.C, line 1522:

 Setting pure/cartesian flag to 2111 for general basis


 Requested basis set is non-standard
 There are 24 shells and 56 basis functions

 Total QAlloc Memory Limit   2000 MB
 Mega-Array Size        61 MB
 MEM_STATIC part        62 MB

                       Distance Matrix (Angstroms)
             N (  1)   N (  2)   N (  3)
   N (  2)  1.477904
   N (  3)  1.463762  1.470782
   N (  4)  1.470850  1.470782  1.470782

 A cutoff of  1.0D-11 yielded    300 shell pairs
 There are      1660 function pairs (      1914 Cartesian)

 -------------------------------------------------------
 OpenMP Integral Computing Module                       
 Release: version 1.0, May 2013, Q-Chem Inc. Pittsburgh 
 -------------------------------------------------------
 Integral Job Info:
 Integral job number is                      11
 Integral operator is                         1
 short-range coefficients                     0
 long-range coefficients              100000000
 Omega coefficients                           0
 if combine SR and LR in K                    0
 Integral screening is                        0
 Integral computing path is                   2
 max size of driver memory is            800000
 size of driver memory is                593474
 size of scratch memory is              1708772
 max col of scratch BK array               1296
 max len of scratch array in speh3          155
 max len of scratch index in speh4           18
 max int batch size is                      520
 min int batch size is                       52
 fixed nKL is                                52
 max L of basis functions is                  2
 order of int derivative is                   0
 number of shells is                         24
 number of basis is                          60
 number of cartesian basis is                60
 number of contracted shell pairs           300
 number of primitive shell pairs           1018
 maxK2 (contraction) of shell pair           25
 max number of K2 of shell pair               1
 max number of CS2 of shell pair             42
 max number of PS2 of shell pair            160
 mem total for path MDJ                   16216
 -------------------------------------------------------
 Smallest overlap matrix eigenvalue = 7.34E-03

 Scale SEOQF with 1.000000e+00/1.000000e+00/1.000000e+00

 Standard Electronic Orientation quadrupole field applied
 Nucleus-field energy     =     0.0000000001 hartrees
 Guess MOs from core Hamiltonian diagonalization
 A restricted Hartree-Fock SCF calculation will be
 performed using Pulay DIIS extrapolation
 SCF converges when DIIS error is below 1.0E-08
 using 12 threads for integral computing 
 ---------------------------------------
  Cycle       Energy         DIIS Error
 ---------------------------------------
    1    -198.8901393500      1.80E-01
    2    -207.9404573564      1.53E-01
    3    -217.0948158646      2.51E-02
    4    -217.2299795496      1.55E-02
    5    -217.3077113505      3.40E-03
    6    -217.3135584095      6.25E-04
    7    -217.3139505495      2.36E-04
    8    -217.3139980567      1.35E-04
    9    -217.3140073755      2.39E-05
   10    -217.3140079863      5.26E-06
   11    -217.3140080268      2.74E-06
   12    -217.3140080431      9.51E-07
   13    -217.3140080443      5.09E-07
   14    -217.3140080446      1.73E-07
   15    -217.3140080446      3.56E-08
   16    -217.3140080446      5.00E-09 Convergence criterion met
 ---------------------------------------
 SCF time:  CPU 4.15 s  wall 0.71 s
 SCF   energy in the final basis set = -217.3140080446
 Total energy in the final basis set = -217.3140080446

 --------------------------------------------------------------

                    Orbital Energies (a.u.)
 --------------------------------------------------------------

 Alpha MOs
 -- Occupied --
-15.753 -15.752 -15.752 -15.752  -1.668  -1.046  -1.042  -1.039
 -0.694  -0.578  -0.577  -0.576  -0.550  -0.544
 -- Virtual --
  0.184   0.186   0.188   0.283   0.286   0.290   0.741   0.871
  0.872   0.873   0.924   0.925   0.925   0.929   0.931   1.071
  1.072   1.072   1.106   1.234   1.237   1.240   1.888   1.891
  1.893   2.126   2.129   2.384   2.549   2.553   2.556   2.651
  2.657   2.663   2.901   2.910   3.340   3.343   3.346   3.546
  3.552   3.558
 --------------------------------------------------------------


                        RESTRICTED (RHF) MOLECULAR ORBITAL COEFFICIENTS
                         1         2         3         4         5         6
 eigenvalues:        -15.753   -15.752   -15.752   -15.752    -1.668    -1.046
   1  N 1   s        0.50162  -0.58943  -0.49428  -0.37274   0.13004  -0.15954
   2  N 1   s       -0.01708   0.01937   0.01622   0.01222   0.26206  -0.33820
   3  N 1   s        0.00474  -0.01483  -0.01255  -0.00951   0.07031  -0.30785
   4  N 1   px      -0.00118   0.00134   0.00101   0.00091   0.07856  -0.02993
   5  N 1   py      -0.00119   0.00136   0.00114   0.00072   0.07862   0.10240
   6  N 1   pz      -0.00117   0.00122   0.00117   0.00089   0.07846  -0.09447
   7  N 1   px      -0.00137   0.00354   0.00100   0.00288  -0.02183   0.04295
   8  N 1   py      -0.00137   0.00373   0.00290   0.00019  -0.02203   0.00886
   9  N 1   pz      -0.00139   0.00155   0.00352   0.00254  -0.02164   0.05997
  10  N 1   d 1      0.00043   0.00061  -0.00009  -0.00002   0.01344   0.00710
  11  N 1   d 2      0.00042   0.00006   0.00064  -0.00010   0.01339  -0.00004
  12  N 1   d 3     -0.00002  -0.00037   0.00030   0.00020  -0.00018  -0.01296
  13  N 1   d 4      0.00042   0.00003   0.00012   0.00067   0.01334  -0.01416
  14  N 1   d 5     -0.00001  -0.00002  -0.00030   0.00045  -0.00010  -0.01144
  15  N 2   s        0.50691   0.78194  -0.29599  -0.16218   0.12918   0.17103
  16  N 2   s       -0.01721  -0.02565   0.00969   0.00531   0.26040   0.36243
  17  N 2   s        0.00474   0.01975  -0.00749  -0.00421   0.06926   0.32976
  18  N 2   px       0.00119   0.00174  -0.00068  -0.00024  -0.07741  -0.03434
  19  N 2   py       0.00119   0.00175  -0.00055  -0.00042  -0.07791   0.09579
  20  N 2   pz      -0.00120  -0.00170   0.00075   0.00043   0.07882   0.08250
  21  N 2   px       0.00134   0.00419  -0.00171   0.00103   0.02144   0.04653
  22  N 2   py       0.00134   0.00436   0.00018  -0.00166   0.02144   0.01290
  23  N 2   pz      -0.00139  -0.00318   0.00285   0.00183  -0.02166  -0.05991
  24  N 2   d 1      0.00042  -0.00052  -0.00025  -0.00020   0.01322  -0.00574
  25  N 2   d 2     -0.00042   0.00026  -0.00006  -0.00060  -0.01342   0.00055
  26  N 2   d 3     -0.00001   0.00019   0.00039   0.00028   0.00011   0.01138
  27  N 2   d 4     -0.00043   0.00022  -0.00059   0.00016  -0.01339  -0.01353
  28  N 2   d 5     -0.00000   0.00002   0.00031  -0.00043  -0.00010   0.01125
  29  N 3   s        0.48285  -0.13380   0.00447   0.85510   0.13091  -0.09353
  30  N 3   s       -0.01650   0.00441  -0.00014  -0.02812   0.26371  -0.19829
  31  N 3   s        0.00442  -0.00333  -0.00002   0.02154   0.07143  -0.18095
  32  N 3   px       0.00115  -0.00018  -0.00003   0.00195  -0.07969   0.10792
  33  N 3   py      -0.00114   0.00040   0.00007  -0.00188   0.07824   0.13942
  34  N 3   pz       0.00114  -0.00031   0.00014   0.00193  -0.07917   0.04194
  35  N 3   px       0.00135   0.00107  -0.00069   0.00454   0.02225  -0.04908
  36  N 3   py      -0.00133   0.00215   0.00119  -0.00401  -0.02202  -0.01563
  37  N 3   pz       0.00133  -0.00093   0.00184   0.00421   0.02225  -0.03169
  38  N 3   d 1     -0.00042   0.00002  -0.00053   0.00036  -0.01339  -0.00314
  39  N 3   d 2     -0.00044  -0.00054   0.00019   0.00028  -0.01335  -0.01014
  40  N 3   d 3      0.00000   0.00008  -0.00053   0.00000  -0.00003  -0.00559
  41  N 3   d 4      0.00044  -0.00037  -0.00034  -0.00044   0.01356  -0.01664
  42  N 3   d 5      0.00000  -0.00053  -0.00008  -0.00009   0.00015  -0.02134
  43  N 4   s        0.49088  -0.07354   0.80636  -0.29275   0.13003   0.08340
  44  N 4   s       -0.01672   0.00241  -0.02648   0.00961   0.26203   0.17670
  45  N 4   s        0.00448  -0.00174   0.02025  -0.00756   0.07033   0.16163
  46  N 4   px      -0.00116   0.00026  -0.00176   0.00073   0.07854   0.10069
  47  N 4   py       0.00116  -0.00005   0.00180  -0.00069  -0.07904   0.14296
  48  N 4   pz       0.00115  -0.00019   0.00184  -0.00054  -0.07802  -0.05313
  49  N 4   px      -0.00134   0.00177  -0.00346   0.00261  -0.02184  -0.04501
  50  N 4   py       0.00133   0.00145   0.00395  -0.00212   0.02185  -0.01849
  51  N 4   pz       0.00131  -0.00071   0.00460   0.00024   0.02184   0.03250
  52  N 4   d 1     -0.00042   0.00007   0.00016  -0.00062  -0.01343   0.00408
  53  N 4   d 2      0.00043  -0.00037  -0.00049  -0.00018   0.01339  -0.00923
  54  N 4   d 3      0.00000   0.00011  -0.00017  -0.00049  -0.00018   0.00746
  55  N 4   d 4     -0.00044  -0.00053   0.00036   0.00004  -0.01335  -0.01701
  56  N 4   d 5     -0.00000   0.00052   0.00008   0.00008  -0.00010   0.02122
                         7         8         9        10        11        12
 eigenvalues:         -1.042    -1.039    -0.694    -0.578    -0.577    -0.576
   1  N 1   s        0.04394  -0.15906   0.06421  -0.07210  -0.07052  -0.07041
   2  N 1   s        0.09315  -0.33722   0.12876  -0.16731  -0.16382  -0.16380
   3  N 1   s        0.08555  -0.31228   0.18425  -0.12573  -0.12216  -0.12096
   4  N 1   px      -0.15633  -0.02481  -0.16707   0.04158   0.29443   0.02538
   5  N 1   py       0.08080  -0.09189  -0.16944   0.03175   0.02870   0.29284
   6  N 1   pz       0.08015   0.10516  -0.16471   0.29583   0.03327   0.03288
   7  N 1   px       0.03130   0.04274   0.08098  -0.04841  -0.18494  -0.03976
   8  N 1   py      -0.03088   0.06036   0.08246  -0.04329  -0.04139  -0.18469
   9  N 1   pz      -0.03116   0.00778   0.07951  -0.18562  -0.04344  -0.04359
  10  N 1   d 1     -0.00802  -0.01373  -0.02118  -0.00408   0.00709   0.00688
  11  N 1   d 2      0.01762   0.00043  -0.02077   0.00741  -0.00434   0.00750
  12  N 1   d 3      0.01171   0.01639   0.00047   0.02397  -0.01251  -0.01199
  13  N 1   d 4     -0.00782   0.00749  -0.02037   0.00817   0.00789  -0.00433
  14  N 1   d 5     -0.02055   0.00588   0.00027   0.00038   0.02086  -0.02124
  15  N 2   s       -0.12115  -0.09460   0.06420   0.11834  -0.02609  -0.02371
  16  N 2   s       -0.25683  -0.20054   0.12878   0.27490  -0.06062  -0.05522
  17  N 2   s       -0.23495  -0.18523   0.18464   0.20608  -0.04553  -0.04060
  18  N 2   px      -0.11533   0.10623   0.16532   0.16564   0.01307  -0.24074
  19  N 2   py       0.12043   0.04049   0.16620   0.16955  -0.23685   0.01872
  20  N 2   pz      -0.00744   0.13743  -0.16614  -0.26084  -0.09559  -0.10161
  21  N 2   px       0.00350  -0.04937  -0.08004  -0.13152   0.00257   0.13886
  22  N 2   py      -0.05841  -0.03210  -0.08027  -0.13462   0.13637  -0.00096
  23  N 2   pz       0.02912  -0.01514   0.08010   0.18344   0.04205   0.04632
  24  N 2   d 1     -0.00125  -0.01646  -0.02073  -0.00330   0.00698   0.00746
  25  N 2   d 2      0.01459  -0.00970   0.02072   0.00771  -0.00386   0.00747
  26  N 2   d 3     -0.00041   0.02119  -0.00009  -0.00840  -0.01998  -0.01993
  27  N 2   d 4     -0.01091  -0.00251   0.02061   0.00716   0.00697  -0.00400
  28  N 2   d 5      0.02034  -0.00557   0.00010  -0.00006  -0.02045   0.02086
  29  N 3   s       -0.12055   0.17092   0.06421  -0.02376  -0.02189   0.11823
  30  N 3   s       -0.25555   0.36247   0.12869  -0.05504  -0.05086   0.27474
  31  N 3   s       -0.23553   0.33581   0.18377  -0.04160  -0.03757   0.20338
  32  N 3   px      -0.11574  -0.03275   0.16884  -0.24600   0.02258   0.17485
  33  N 3   py      -0.00647   0.08161  -0.16797  -0.11064  -0.11337  -0.25449
  34  N 3   pz       0.12215   0.09942   0.16798   0.01589  -0.25019   0.17018
  35  N 3   px       0.00322   0.04764  -0.08197   0.14163  -0.00424  -0.13888
  36  N 3   py       0.02862  -0.05978   0.08187   0.05119   0.05351   0.18146
  37  N 3   pz      -0.05951   0.01222  -0.08174  -0.00042   0.14442  -0.13542
  38  N 3   d 1     -0.01107  -0.01344   0.02095  -0.00347   0.00873   0.00736
  39  N 3   d 2      0.01451   0.00077   0.02083   0.00832  -0.00367   0.00681
  40  N 3   d 3     -0.01766  -0.01562   0.00003  -0.00785   0.02877   0.00397
  41  N 3   d 4     -0.00143  -0.00605  -0.02083   0.00802   0.00842  -0.00343
  42  N 3   d 5      0.01067  -0.00416  -0.00013   0.02829   0.00670   0.00679
  43  N 4   s        0.19776   0.08139   0.06421  -0.02196   0.11850  -0.02462
  44  N 4   s        0.41923   0.17263   0.12875  -0.05089   0.27531  -0.05735
  45  N 4   s        0.38493   0.15907   0.18424  -0.03879   0.20516  -0.04179
  46  N 4   px      -0.07471   0.10109  -0.16705  -0.10552  -0.25607  -0.10691
  47  N 4   py      -0.04881  -0.05166   0.16795  -0.23472   0.18189   0.01463
  48  N 4   pz      -0.04670   0.14622   0.16620   0.02241   0.16064  -0.25024
  49  N 4   px      -0.02459  -0.04497   0.08097   0.04888   0.18160   0.04897
  50  N 4   py       0.05731   0.03194  -0.08123   0.13369  -0.14252   0.00154
  51  N 4   pz       0.05632  -0.02076  -0.08076  -0.00450  -0.12912   0.14551
  52  N 4   d 1      0.00169  -0.01703   0.02089  -0.00360   0.00805   0.00807
  53  N 4   d 2      0.01147  -0.00968  -0.02078   0.00696  -0.00348   0.00837
  54  N 4   d 3      0.00583  -0.02210   0.00016  -0.00807   0.00483   0.02829
  55  N 4   d 4      0.00177   0.00437   0.02066   0.00771   0.00638  -0.00390
  56  N 4   d 5     -0.01076   0.00424   0.00010  -0.02790  -0.00634  -0.00709
                        13        14        15        16        17        18
 eigenvalues:         -0.550    -0.544     0.184     0.186     0.188     0.283
   1  N 1   s        0.00208   0.00175  -0.00396   0.00073  -0.00389  -0.11463
   2  N 1   s        0.00546   0.00471  -0.00941   0.00174  -0.00922  -0.27170
   3  N 1   s        0.00129   0.00071  -0.02996   0.00560  -0.02996  -1.10827
   4  N 1   px       0.18594  -0.19407  -0.25766  -0.00689   0.25150  -0.18843
   5  N 1   py      -0.25826  -0.07282  -0.10549   0.04610  -0.34828  -0.23028
   6  N 1   pz       0.06601   0.26253   0.34330  -0.03551   0.07719  -0.11873
   7  N 1   px      -0.12217   0.13094   0.37671   0.00763  -0.35733   0.53759
   8  N 1   py       0.17242   0.04981   0.15721  -0.06665   0.50650   0.72358
   9  N 1   pz      -0.04264  -0.17459  -0.49092   0.05098  -0.10619   0.20223
  10  N 1   d 1     -0.00697  -0.02645   0.00975  -0.00121   0.00191   0.00807
  11  N 1   d 2     -0.01917   0.01926  -0.00759   0.00034   0.00676  -0.01183
  12  N 1   d 3      0.00242   0.00946   0.00040  -0.00023   0.00006  -0.00826
  13  N 1   d 4      0.02599   0.00712  -0.00323   0.00107  -0.00969  -0.02172
  14  N 1   d 5      0.00908  -0.00250  -0.00008   0.00029   0.00036  -0.00331
  15  N 2   s       -0.00123   0.00100   0.00331  -0.00052   0.00084   0.14571
  16  N 2   s       -0.00273   0.00284   0.00777  -0.00110   0.00206   0.34424
  17  N 2   s       -0.00202   0.00008   0.02588  -0.00568   0.00573   1.41465
  18  N 2   px      -0.19669   0.19388  -0.18055  -0.26277  -0.17761  -0.22296
  19  N 2   py       0.26361   0.07630  -0.18519   0.30227   0.08652  -0.26783
  20  N 2   pz       0.07489   0.26422  -0.34198   0.03555  -0.08543   0.19995
  21  N 2   px       0.13027  -0.13021   0.26568   0.37619   0.26266   0.61315
  22  N 2   py      -0.17375  -0.05161   0.27141  -0.43610  -0.12415   0.80279
  23  N 2   pz      -0.04969  -0.17570   0.49012  -0.05088   0.12777  -0.46843
  24  N 2   d 1     -0.00711  -0.02657  -0.01007   0.00109  -0.00301   0.00045
  25  N 2   d 2      0.01932  -0.01898  -0.00543  -0.00713  -0.00576  -0.01027
  26  N 2   d 3      0.00304   0.01016  -0.00003   0.00001   0.00027   0.00529
  27  N 2   d 4     -0.02651  -0.00688  -0.00533   0.00834   0.00258  -0.02045
  28  N 2   d 5      0.01013  -0.00214  -0.00004   0.00017   0.00016   0.00310
  29  N 3   s        0.00117  -0.00114   0.00071  -0.00053   0.00309  -0.04892
  30  N 3   s        0.00322  -0.00249   0.00170  -0.00112   0.00722  -0.11626
  31  N 3   s        0.00033  -0.00188   0.00519  -0.00582   0.02484  -0.47164
  32  N 3   px      -0.18693   0.18499   0.16813   0.26577   0.16561  -0.01397
  33  N 3   py      -0.25605  -0.06536   0.09655  -0.04614   0.34877  -0.16864
  34  N 3   pz      -0.06204  -0.25762  -0.07691  -0.30781   0.16083   0.07430
  35  N 3   px       0.12339  -0.12385  -0.23559  -0.38596  -0.23330   0.16707
  36  N 3   py       0.17095   0.04367  -0.13431   0.06694  -0.50546   0.58957
  37  N 3   pz       0.04058   0.17321   0.11138   0.44360  -0.22743  -0.20338
  38  N 3   d 1      0.00715   0.02604  -0.00199  -0.00880   0.00438   0.00332
  39  N 3   d 2      0.01945  -0.01913   0.00392   0.00771   0.00432  -0.01717
  40  N 3   d 3      0.00166   0.00841  -0.00010   0.00049  -0.00030  -0.00001
  41  N 3   d 4      0.02587   0.00696   0.00207  -0.00120   0.00933  -0.02434
  42  N 3   d 5      0.00866  -0.00253  -0.00049  -0.00019  -0.00064  -0.01233
  43  N 4   s       -0.00224  -0.00182  -0.00007   0.00032  -0.00002   0.01710
  44  N 4   s       -0.00520  -0.00421  -0.00011   0.00048  -0.00002   0.04047
  45  N 4   s       -0.00312  -0.00241  -0.00111   0.00589  -0.00061   0.16558
  46  N 4   px       0.19759  -0.18474   0.24569   0.01054  -0.26309  -0.04734
  47  N 4   py       0.25980   0.06407   0.17433  -0.30112  -0.09197  -0.13084
  48  N 4   pz      -0.07627  -0.26047   0.07191   0.30887  -0.17086   0.00323
  49  N 4   px      -0.13151   0.12314  -0.34690  -0.01772   0.38654   0.23685
  50  N 4   py      -0.17121  -0.04229  -0.24591   0.43496   0.13418   0.50876
  51  N 4   pz       0.05120   0.17509  -0.10253  -0.44465   0.25155  -0.05257
  52  N 4   d 1      0.00680   0.02603   0.00203   0.00876  -0.00548   0.00548
  53  N 4   d 2     -0.01932   0.01909   0.00622   0.00043  -0.00806  -0.01598
  54  N 4   d 3      0.00294   0.00847  -0.00021  -0.00026  -0.00001   0.00372
  55  N 4   d 4     -0.02651  -0.00724   0.00420  -0.00840  -0.00258  -0.02520
  56  N 4   d 5      0.01007  -0.00252   0.00060  -0.00030   0.00009   0.01220
                        19        20        21        22        23        24
 eigenvalues:          0.286     0.290     0.741     0.871     0.872     0.873
   1  N 1   s       -0.03449  -0.11673  -0.13301  -0.05664   0.00763  -0.05738
   2  N 1   s       -0.08140  -0.27453  -0.70648  -0.29553   0.04046  -0.30951
   3  N 1   s       -0.34001  -1.17234   0.59320  -0.42005   0.05491  -0.39588
   4  N 1   px       0.04435  -0.20371   0.14833   0.32307   0.18181   0.32454
   5  N 1   py      -0.10543  -0.10642   0.14979   0.44072  -0.14857   0.16893
   6  N 1   pz      -0.10124  -0.24077   0.14688   0.15950  -0.15749   0.43664
   7  N 1   px      -0.28415   0.59564   0.12082   0.54212   0.20774   0.53658
   8  N 1   py       0.36903   0.19405   0.12388   0.69424  -0.20440   0.34772
   9  N 1   pz       0.36414   0.75819   0.11783   0.33452  -0.21305   0.67034
  10  N 1   d 1     -0.01505  -0.02147  -0.00679  -0.02384  -0.01196   0.00597
  11  N 1   d 2      0.02182  -0.01185  -0.00677  -0.00608   0.02711  -0.00705
  12  N 1   d 3      0.00594   0.00680   0.00039   0.00648   0.00411  -0.00544
  13  N 1   d 4     -0.01411   0.00943  -0.00675   0.00761  -0.01182  -0.02647
  14  N 1   d 5     -0.01100   0.00676   0.00023   0.00422  -0.00989  -0.00528
  15  N 2   s       -0.06749  -0.04416  -0.13379   0.06837   0.03624  -0.02509
  16  N 2   s       -0.15888  -0.10347  -0.71141   0.36063   0.19330  -0.13655
  17  N 2   s       -0.66741  -0.44577   0.60651   0.49639   0.25298  -0.16949
  18  N 2   px       0.16160  -0.00768  -0.14674   0.35754   0.33210   0.04412
  19  N 2   py       0.01300   0.07149  -0.14673   0.47778  -0.00085  -0.11599
  20  N 2   pz      -0.14531  -0.14537   0.14814  -0.26807  -0.25545   0.32773
  21  N 2   px      -0.53708   0.16700  -0.11808   0.61079   0.49872  -0.00301
  22  N 2   py       0.11148  -0.19980  -0.11666   0.76427   0.08319  -0.20215
  23  N 2   pz       0.45815   0.55299   0.11733  -0.49760  -0.40181   0.46222
  24  N 2   d 1     -0.01380  -0.02354  -0.00663   0.02161  -0.00133   0.01803
  25  N 2   d 2      0.01822  -0.01743   0.00674  -0.01158   0.01052   0.02489
  26  N 2   d 3      0.00449   0.01058   0.00006  -0.00465   0.00248  -0.00861
  27  N 2   d 4     -0.01771   0.00325   0.00702   0.00187  -0.02814   0.00579
  28  N 2   d 5      0.01090  -0.00612  -0.00009  -0.00380   0.00956   0.00467
  29  N 3   s       -0.06383   0.14751  -0.13216  -0.02526   0.03459   0.06822
  30  N 3   s       -0.15114   0.34800  -0.70118  -0.13057   0.18249   0.36408
  31  N 3   s       -0.62645   1.47574   0.57902  -0.19270   0.25636   0.48203
  32  N 3   px       0.15623  -0.23947  -0.14994   0.03427   0.32980   0.36833
  33  N 3   py      -0.13280   0.17462   0.14854   0.32926  -0.24307  -0.27138
  34  N 3   pz       0.00892  -0.27406  -0.14992  -0.12469  -0.00685   0.47771
  35  N 3   px      -0.52508   0.67190  -0.12378  -0.02094   0.49495   0.61968
  36  N 3   py       0.42886  -0.42731   0.12443   0.47591  -0.38866  -0.50165
  37  N 3   pz       0.12896   0.83177  -0.12513  -0.21849   0.07778   0.75185
  38  N 3   d 1     -0.01823  -0.02070   0.00653   0.00534  -0.02791   0.00338
  39  N 3   d 2      0.01866  -0.01132   0.00681   0.02350   0.01149  -0.00996
  40  N 3   d 3     -0.01166  -0.00511  -0.00004   0.00127  -0.00914   0.00464
  41  N 3   d 4     -0.01328  -0.00059  -0.00693   0.01938  -0.00164   0.02171
  42  N 3   d 5      0.00136  -0.00343   0.00009   0.01048   0.00185   0.00302
  43  N 4   s        0.16583   0.01415  -0.13297   0.01472  -0.07848   0.01310
  44  N 4   s        0.39148   0.03330  -0.70630   0.07793  -0.41633   0.06964
  45  N 4   s        1.63384   0.14196   0.59289   0.11124  -0.56419   0.08829
  46  N 4   px       0.27345  -0.04459   0.14833   0.07521   0.48012   0.08130
  47  N 4   py      -0.25125   0.00087  -0.14832   0.29448  -0.39691   0.01475
  48  N 4   pz      -0.25550  -0.11217  -0.14831   0.01530  -0.39996   0.28429
  49  N 4   px      -0.77785   0.24901   0.12084   0.05765   0.78595   0.06997
  50  N 4   py       0.68368  -0.04502  -0.11948   0.40637  -0.68460   0.04872
  51  N 4   pz       0.69612   0.48085  -0.12224   0.05546  -0.68420   0.38018
  52  N 4   d 1     -0.01065  -0.02477   0.00650  -0.00945   0.01432   0.02376
  53  N 4   d 2      0.01507  -0.01653  -0.00678   0.02019  -0.00509   0.01970
  54  N 4   d 3      0.00052  -0.01217  -0.00015  -0.00329   0.00171   0.00993
  55  N 4   d 4     -0.00968   0.00530   0.00705   0.02215   0.01493  -0.00868
  56  N 4   d 5     -0.00164   0.00359  -0.00008  -0.01023  -0.00201  -0.00287
                        25        26        27        28        29        30
 eigenvalues:          0.924     0.925     0.925     0.929     0.931     1.071
   1  N 1   s       -0.02513   0.14261  -0.00822   0.01085   0.00686   0.00064
   2  N 1   s       -0.16065   0.90236  -0.05004   0.07209   0.04701   0.00362
   3  N 1   s        0.48330  -2.63400   0.13196  -0.20548  -0.13421  -0.03294
   4  N 1   px       0.27790   0.00654   0.31501   0.24372  -0.28202  -0.34444
   5  N 1   py       0.10395  -0.03284  -0.41746  -0.33835  -0.10518  -0.11638
   6  N 1   pz      -0.36556  -0.13512   0.12403   0.08219   0.38072   0.47110
   7  N 1   px       0.37350   0.45515   0.48669   0.32781  -0.33272  -0.79963
   8  N 1   py       0.08962   0.37564  -0.69020  -0.36914  -0.10805  -0.26724
   9  N 1   pz      -0.68485   0.22914   0.17893   0.13346   0.50767   1.10339
  10  N 1   d 1      0.02201  -0.02365  -0.00432  -0.01283  -0.04497   0.01023
  11  N 1   d 2     -0.00788  -0.03209  -0.01422  -0.03256   0.03061  -0.00831
  12  N 1   d 3     -0.01514  -0.00461   0.00537   0.01008   0.03876  -0.00541
  13  N 1   d 4      0.00073  -0.03329   0.02444   0.03894   0.01050  -0.00310
  14  N 1   d 5      0.00434  -0.00038   0.01919   0.03874  -0.01027   0.00153
  15  N 2   s       -0.12291  -0.06720   0.03850  -0.00674   0.00360  -0.00053
  16  N 2   s       -0.77889  -0.42417   0.24341  -0.04333   0.02527  -0.00280
  17  N 2   s        2.26203   1.21845  -0.70594   0.12813  -0.07028   0.02569
  18  N 2   px      -0.04590   0.19947   0.33985  -0.28833   0.27749  -0.17229
  19  N 2   py      -0.22245   0.08868  -0.28801   0.39909   0.11820  -0.29569
  20  N 2   pz      -0.12762   0.36710   0.00838   0.12174   0.38641  -0.46690
  21  N 2   px       0.29898   0.52396   0.44614  -0.34296   0.33458  -0.39793
  22  N 2   py       0.01266   0.35493  -0.59747   0.53479   0.14171  -0.68559
  23  N 2   pz      -0.60031   0.39960   0.13051   0.14110   0.50533  -1.09038
  24  N 2   d 1      0.03227  -0.00144  -0.00951  -0.01130  -0.04478  -0.01009
  25  N 2   d 2     -0.02677  -0.02572  -0.00588   0.03133  -0.03010  -0.00396
  26  N 2   d 3     -0.00601   0.01318   0.00129   0.01123   0.04009   0.00539
  27  N 2   d 4     -0.01788  -0.01809   0.02103  -0.04580  -0.01088  -0.00684
  28  N 2   d 5     -0.00470  -0.00390  -0.01227   0.04085  -0.00988   0.00093
  29  N 3   s        0.04452  -0.05100  -0.12888   0.00743  -0.00356  -0.00013
  30  N 3   s        0.28224  -0.32443  -0.81509   0.04923  -0.02342  -0.00075
  31  N 3   s       -0.83070   0.96457   2.39408  -0.14020   0.07242   0.00695
  32  N 3   px       0.34702   0.24186  -0.05681  -0.25289   0.25919   0.17726
  33  N 3   py      -0.05479   0.41898  -0.14091  -0.33181  -0.08373   0.12193
  34  N 3   pz      -0.35279   0.12278  -0.22556  -0.06561  -0.35024  -0.05547
  35  N 3   px       0.42154   0.55576   0.31853  -0.33359   0.33269   0.41504
  36  N 3   py       0.05075   0.51247  -0.61265  -0.37086  -0.10843   0.28453
  37  N 3   pz      -0.71086   0.35841   0.03788  -0.09367  -0.41159  -0.12819
  38  N 3   d 1      0.02801  -0.01851  -0.01688   0.01223   0.04140  -0.00112
  39  N 3   d 2     -0.00794  -0.02378  -0.02418   0.03315  -0.03113   0.00418
  40  N 3   d 3      0.01737  -0.00686   0.00789   0.00887   0.03761  -0.00076
  41  N 3   d 4     -0.00712  -0.01067   0.03851   0.03915   0.01132   0.00319
  42  N 3   d 5     -0.00792  -0.01751   0.00707   0.03773  -0.01022   0.00236
  43  N 4   s        0.10367  -0.02446   0.09850  -0.01123  -0.00659   0.00002
  44  N 4   s        0.65672  -0.15465   0.62302  -0.07295  -0.04368  -0.00005
  45  N 4   s       -1.91598   0.45116  -1.81899   0.21592   0.13058   0.00030
  46  N 4   px      -0.02284   0.40159   0.05932   0.29307  -0.25349   0.35048
  47  N 4   py       0.30700   0.19113  -0.14673   0.38862   0.09015   0.29838
  48  N 4   pz      -0.21258   0.18379   0.31574  -0.11450  -0.35749   0.05227
  49  N 4   px       0.28753   0.58287   0.39394   0.33723  -0.33144   0.81810
  50  N 4   py       0.17504   0.39552  -0.55415   0.53454   0.13341   0.69672
  51  N 4   pz      -0.66280   0.36933   0.21616  -0.11051  -0.41201   0.12230
  52  N 4   d 1      0.03468  -0.01558   0.00798   0.00972   0.04100   0.00136
  53  N 4   d 2     -0.02181  -0.01342  -0.02643  -0.03052   0.03166   0.00837
  54  N 4   d 3      0.01221  -0.00896  -0.01026   0.01110   0.03795   0.00056
  55  N 4   d 4      0.00757  -0.01323   0.02757  -0.04632  -0.01247   0.00708
  56  N 4   d 5      0.00747   0.01334  -0.00005   0.04045  -0.01045  -0.00477
                        31        32        33        34        35        36
 eigenvalues:          1.072     1.072     1.106     1.234     1.237     1.240
   1  N 1   s       -0.00006   0.00065   0.05915  -0.05151  -0.16184  -0.05139
   2  N 1   s       -0.00034   0.00366   0.60822  -0.49812  -1.58369  -0.50884
   3  N 1   s        0.00312  -0.03403  -0.19137   1.94532   5.95211   1.83835
   4  N 1   px       0.00772   0.34614   0.19429  -0.20467  -0.09939  -0.20283
   5  N 1   py       0.02345  -0.47068   0.19812  -0.12796  -0.23954   0.14580
   6  N 1   pz      -0.03215   0.13519   0.19034   0.14825  -0.23241  -0.12187
   7  N 1   px       0.01623   0.81473   0.31292  -0.18434  -2.15141  -0.12356
   8  N 1   py       0.05511  -1.09771   0.31155  -0.42190  -1.74533  -1.23442
   9  N 1   pz      -0.07480   0.32070   0.31399  -1.23244  -1.71669  -0.37159
  10  N 1   d 1     -0.00053   0.00282   0.13887  -0.04015  -0.02332  -0.00182
  11  N 1   d 2     -0.00014   0.00799   0.13606   0.01484  -0.04427   0.01078
  12  N 1   d 3      0.00046  -0.00177  -0.00444   0.11268  -0.02416  -0.03368
  13  N 1   d 4      0.00078  -0.01206   0.13330   0.00279  -0.02258  -0.04368
  14  N 1   d 5      0.00002  -0.00640  -0.00261  -0.02424   0.04256  -0.10772
  15  N 2   s        0.00001  -0.00014   0.06019  -0.13745   0.08982   0.06479
  16  N 2   s        0.00032  -0.00084   0.61434  -1.34042   0.88211   0.63523
  17  N 2   s       -0.00260   0.00743  -0.21694   5.05641  -3.26402  -2.39037
  18  N 2   px       0.41738  -0.18335  -0.19895   0.19138   0.05131  -0.23297
  19  N 2   py      -0.38613   0.05373  -0.19838   0.26877  -0.08268   0.12058
  20  N 2   pz       0.03159  -0.12944   0.19875  -0.03087   0.28056   0.11185
  21  N 2   px       0.97293  -0.42786  -0.31944   1.51009  -1.49485  -0.25759
  22  N 2   py      -0.90104   0.12723  -0.32198   1.26802  -1.08689  -1.35605
  23  N 2   pz       0.07433  -0.30321   0.32686  -1.99768   0.50951   0.64019
  24  N 2   d 1      0.00069  -0.00272   0.13589  -0.04476  -0.00959   0.00629
  25  N 2   d 2      0.00964  -0.00433  -0.13568   0.02137  -0.04066   0.01342
  26  N 2   d 3     -0.00036   0.00148   0.00007   0.07107   0.09346   0.01998
  27  N 2   d 4     -0.00901   0.00146  -0.13650   0.00909  -0.01965  -0.04174
  28  N 2   d 5      0.00571  -0.00159   0.00009   0.02473  -0.04134   0.10695
  29  N 3   s       -0.00000  -0.00053   0.05800   0.06651   0.08670  -0.14104
  30  N 3   s        0.00030  -0.00275   0.60153   0.64962   0.84524  -1.38477
  31  N 3   s       -0.00233   0.02584  -0.16279  -2.43903  -3.22748   5.18738
  32  N 3   px      -0.41528   0.18847  -0.18931  -0.23319   0.05311   0.18743
  33  N 3   py      -0.02397   0.47513   0.18944   0.12115   0.27863  -0.03707
  34  N 3   pz       0.39100   0.28561  -0.18992   0.11486  -0.08596   0.26776
  35  N 3   px      -0.97344   0.44533  -0.30499  -0.30189  -1.50735   1.55336
  36  N 3   py      -0.05554   1.11180   0.29799   0.63616   0.44912  -2.02157
  37  N 3   pz       0.91552   0.67300  -0.30257  -1.36259  -1.07419   1.30984
  38  N 3   d 1      0.00936   0.00693  -0.13575  -0.04358  -0.01933   0.01002
  39  N 3   d 2     -0.01004   0.00459  -0.13657   0.01078  -0.04093   0.02237
  40  N 3   d 3      0.00501   0.00379   0.00014  -0.10681  -0.01007  -0.05511
  41  N 3   d 4     -0.00061   0.01218   0.13644   0.00581  -0.01237  -0.04748
  42  N 3   d 5     -0.00328   0.00526   0.00007   0.03608  -0.10430  -0.04716
  43  N 4   s        0.00006   0.00001   0.05910   0.12525  -0.01465   0.12488
  44  N 4   s       -0.00028  -0.00013   0.60799   1.22429  -0.14332   1.22328
  45  N 4   s        0.00182   0.00078  -0.19018  -4.57702   0.53926  -4.62112
  46  N 4   px      -0.00814  -0.33991   0.19409   0.16485   0.20404   0.15542
  47  N 4   py       0.38479  -0.05679  -0.19358  -0.27586   0.13004  -0.00305
  48  N 4   pz      -0.39219  -0.28284  -0.19476  -0.00645   0.12576  -0.27754
  49  N 4   px      -0.01995  -0.79585   0.31243   1.39977  -0.85056   1.41223
  50  N 4   py       0.90006  -0.13253  -0.31484  -1.05123  -0.18511  -1.89361
  51  N 4   pz      -0.91615  -0.66190  -0.30988  -1.87497  -0.15685  -1.04322
  52  N 4   d 1     -0.00919  -0.00665  -0.13530  -0.04657  -0.01418  -0.00184
  53  N 4   d 2     -0.00022  -0.00793   0.13616   0.02089  -0.03721   0.02150
  54  N 4   d 3     -0.00493  -0.00345   0.00017  -0.07795  -0.05779   0.06888
  55  N 4   d 4      0.00918  -0.00121  -0.13695  -0.00421  -0.01494  -0.04441
  56  N 4   d 5     -0.00274   0.00293   0.00006  -0.03601   0.10391   0.04685
                        37        38        39        40        41        42
 eigenvalues:          1.888     1.891     1.893     2.126     2.129     2.384
   1  N 1   s        0.03728  -0.00199  -0.03798  -0.00104  -0.00105   0.09730
   2  N 1   s        0.26596  -0.01385  -0.26498  -0.00702  -0.00691   0.78247
   3  N 1   s       -0.78468   0.04035   0.77645  -0.02365  -0.02228  -0.31497
   4  N 1   px       0.05552  -0.09435  -0.06049  -0.08690   0.08731   0.26320
   5  N 1   py       0.00853   0.03666  -0.11941  -0.03854  -0.12473   0.26758
   6  N 1   pz       0.11522   0.04805  -0.00327   0.11331   0.02550   0.25865
   7  N 1   px       0.22762   0.11215  -0.23132  -0.02889   0.03490   0.26980
   8  N 1   py       0.30364  -0.07196  -0.14890  -0.00992  -0.03868   0.28464
   9  N 1   pz       0.14820  -0.07538  -0.29704   0.04928   0.01338   0.25517
  10  N 1   d 1     -0.13501  -0.05598  -0.01955   0.35617   0.08583  -0.21887
  11  N 1   d 2     -0.05874   0.13274   0.03724  -0.24645   0.26152  -0.21143
  12  N 1   d 3     -0.31510  -0.26851  -0.30675  -0.07043  -0.02120   0.00263
  13  N 1   d 4      0.03366  -0.06881   0.13145  -0.09979  -0.33768  -0.20469
  14  N 1   d 5     -0.17204   0.43570  -0.19848   0.01644  -0.08682   0.00200
  15  N 2   s       -0.04366  -0.02605  -0.01797  -0.00142  -0.00236   0.09840
  16  N 2   s       -0.31061  -0.18373  -0.12512  -0.01052  -0.01964   0.77199
  17  N 2   s        0.90902   0.53893   0.36386  -0.01168   0.02202  -0.23789
  18  N 2   px       0.07534  -0.01420   0.09953   0.08863  -0.08410  -0.26848
  19  N 2   py       0.02258   0.11829   0.04063   0.03930   0.12407  -0.26383
  20  N 2   pz      -0.11278  -0.02162   0.05148   0.11174   0.02151   0.26926
  21  N 2   px       0.25512   0.23490   0.01304   0.03274  -0.02559  -0.25634
  22  N 2   py       0.32955   0.05338   0.09450   0.01589   0.05918  -0.24142
  23  N 2   pz      -0.20981  -0.18375  -0.21052   0.04747   0.00309   0.24653
  24  N 2   d 1      0.12202   0.00723  -0.08057   0.35896   0.09076  -0.20802
  25  N 2   d 2     -0.06661   0.04937  -0.12304   0.24276  -0.26574   0.20535
  26  N 2   d 3      0.23898  -0.10565  -0.44226  -0.07547  -0.01463  -0.00345
  27  N 2   d 4      0.00871  -0.14216  -0.03289   0.09734   0.34327   0.23239
  28  N 2   d 5      0.17469  -0.43552   0.20144   0.01780  -0.07531  -0.00105
  29  N 3   s        0.01705  -0.02282   0.04410  -0.00247  -0.00140   0.09629
  30  N 3   s        0.12182  -0.16104   0.30840  -0.02061  -0.01046   0.79358
  31  N 3   s       -0.36131   0.47463  -0.91257   0.02401  -0.00960  -0.39621
  32  N 3   px      -0.09492  -0.02542  -0.07581   0.09053  -0.08575  -0.25796
  33  N 3   py      -0.04994  -0.02009   0.11134  -0.04272  -0.12602   0.25754
  34  N 3   pz      -0.03522   0.11509  -0.02441  -0.11391  -0.02447  -0.26262
  35  N 3   px      -0.00868   0.21981  -0.25835   0.03908  -0.03069  -0.28511
  36  N 3   py       0.21453  -0.15988   0.20397  -0.02074  -0.04048   0.29437
  37  N 3   pz      -0.08897   0.02937  -0.32553  -0.02713  -0.00715  -0.29982
  38  N 3   d 1      0.04315  -0.14680  -0.00566  -0.35054  -0.08819   0.19165
  39  N 3   d 2      0.12313   0.05341   0.06875   0.24177  -0.26516   0.21875
  40  N 3   d 3     -0.06324   0.44053   0.25666  -0.08459  -0.01914  -0.00252
  41  N 3   d 4      0.09688   0.00774  -0.11779  -0.09455  -0.33490  -0.21538
  42  N 3   d 5     -0.47698  -0.13800   0.11706   0.01723  -0.08172  -0.00239
  43  N 4   s       -0.01159   0.05077   0.01078  -0.00287  -0.00269   0.09735
  44  N 4   s       -0.08213   0.35809   0.07552  -0.02433  -0.02294   0.78278
  45  N 4   s        0.23907  -1.05370  -0.22516   0.03650   0.03403  -0.31663
  46  N 4   px      -0.08063   0.05424   0.07817  -0.09225   0.08254   0.26338
  47  N 4   py      -0.06809  -0.09778  -0.04143   0.04133   0.12482  -0.25859
  48  N 4   pz       0.04430  -0.09225   0.06893  -0.11303  -0.02291  -0.26791
  49  N 4   px       0.01561   0.34230  -0.01760  -0.04316   0.02168   0.27043
  50  N 4   py       0.18845  -0.28472  -0.03258   0.02621   0.06079  -0.25573
  51  N 4   pz       0.03363  -0.28845  -0.18161  -0.02562   0.00194  -0.28535
  52  N 4   d 1     -0.05113   0.08716  -0.11338  -0.35143  -0.08646   0.18493
  53  N 4   d 2      0.11020  -0.03058  -0.09664  -0.24048   0.26738  -0.21169
  54  N 4   d 3      0.13848  -0.06977   0.49029  -0.08143  -0.02151  -0.00169
  55  N 4   d 4      0.10414   0.09071   0.05142   0.09879   0.34218   0.23905
  56  N 4   d 5      0.47694   0.13600  -0.11809   0.02308  -0.07512  -0.00117
                        43        44        45        46        47        48
 eigenvalues:          2.549     2.553     2.556     2.651     2.657     2.663
   1  N 1   s       -0.02173  -0.04306  -0.01220   0.00031   0.00203   0.00030
   2  N 1   s       -0.00636   0.04872   0.04677  -0.00133  -0.00477  -0.00011
   3  N 1   s       -0.49798  -1.24724  -0.49338   0.01398   0.07319   0.00789
   4  N 1   px      -0.00008  -0.16587   0.02161   0.00811   0.00313   0.00013
   5  N 1   py      -0.03478  -0.09584  -0.12210  -0.00268   0.00201  -0.00027
   6  N 1   pz      -0.14523  -0.09735  -0.00240  -0.00289   0.01152   0.00254
   7  N 1   px       0.30600   0.16389   0.30980   0.00946  -0.02995  -0.00044
   8  N 1   py       0.19249   0.37886  -0.15041  -0.00600  -0.02005  -0.00868
   9  N 1   pz      -0.15138   0.38905   0.23593  -0.01474  -0.00649   0.00350
  10  N 1   d 1     -0.35547   0.26752   0.20179   0.04609  -0.24961  -0.13125
  11  N 1   d 2      0.37605  -0.07957   0.31289  -0.19995  -0.02484   0.21525
  12  N 1   d 3      0.05575  -0.03116  -0.04267   0.11910  -0.45995  -0.24681
  13  N 1   d 4      0.19883   0.26015  -0.38131   0.14989   0.24874  -0.08768
  14  N 1   d 5     -0.01818   0.03341  -0.10879  -0.37596  -0.25245   0.28847
  15  N 2   s        0.04527   0.00287  -0.00827   0.00105  -0.00139  -0.00035
  16  N 2   s       -0.07323   0.00558   0.03496  -0.00260   0.00290   0.00120
  17  N 2   s        1.37502   0.02577  -0.32833   0.03785  -0.04768  -0.01380
  18  N 2   px      -0.10420   0.00097   0.11306  -0.00773  -0.00257  -0.00149
  19  N 2   py      -0.14062   0.06952  -0.02930   0.00163   0.00264  -0.00050
  20  N 2   pz       0.13467   0.09133   0.01382   0.00301  -0.01147  -0.00472
  21  N 2   px       0.41018   0.03385   0.20469   0.00273  -0.03084  -0.00445
  22  N 2   py       0.29621   0.24685  -0.25270   0.01258  -0.01289  -0.01034
  23  N 2   pz      -0.33456   0.26521   0.21349  -0.01301  -0.00742  -0.00360
  24  N 2   d 1     -0.12505   0.42199   0.23013  -0.07994   0.24057   0.13740
  25  N 2   d 2      0.26541   0.06139   0.41914   0.19371   0.09408   0.20182
  26  N 2   d 3      0.01032  -0.07515  -0.02940  -0.11649   0.46383   0.25561
  27  N 2   d 4      0.09684   0.37910  -0.28750  -0.26061   0.13383  -0.06596
  28  N 2   d 5      0.03113  -0.05511   0.08839  -0.47952   0.01139  -0.25818
  29  N 3   s       -0.00845   0.00312   0.05219  -0.00049  -0.00148   0.00114
  30  N 3   s       -0.01506  -0.01111  -0.03255   0.00088   0.00332  -0.00174
  31  N 3   s       -0.15663   0.14347   1.42887  -0.01728  -0.05343   0.03711
  32  N 3   px       0.11793  -0.00195  -0.13553   0.00620   0.00223  -0.00073
  33  N 3   py       0.02001   0.09532   0.13936   0.00004  -0.00218   0.00072
  34  N 3   pz      -0.02859   0.06823  -0.15772  -0.00222   0.00792  -0.00825
  35  N 3   px       0.26118   0.05803   0.38630   0.00543  -0.02537   0.01372
  36  N 3   py       0.16318   0.23365  -0.35082   0.00410   0.00813  -0.01542
  37  N 3   pz      -0.19923   0.28551   0.31323  -0.01468  -0.00722  -0.00188
  38  N 3   d 1     -0.28592   0.40297   0.10469   0.03250  -0.12966   0.25514
  39  N 3   d 2      0.43428   0.03702   0.22605  -0.17913  -0.14006  -0.18632
  40  N 3   d 3     -0.04061   0.06929   0.00359  -0.08700   0.23874  -0.46797
  41  N 3   d 4      0.22503   0.39667  -0.19466  -0.14366  -0.25620   0.05607
  42  N 3   d 5      0.08251   0.06918   0.01340   0.34711   0.37675   0.12070
  43  N 4   s       -0.02571   0.03734  -0.02017  -0.00105   0.00083  -0.00091
  44  N 4   s        0.00912  -0.04120   0.04382   0.00154  -0.00155   0.00203
  45  N 4   s       -0.68593   1.07720  -0.64466  -0.03395   0.02797  -0.03175
  46  N 4   px      -0.01778   0.16576  -0.00977  -0.00591  -0.00084   0.00249
  47  N 4   py       0.15457  -0.07416   0.01922   0.00077  -0.00155   0.00047
  48  N 4   pz       0.04303  -0.07142   0.13806   0.00252  -0.00657   0.01002
  49  N 4   px       0.33278  -0.07101   0.31662   0.00463  -0.02225   0.01685
  50  N 4   py       0.08932   0.35992  -0.28283  -0.00706   0.00315  -0.01448
  51  N 4   pz      -0.25507   0.37290   0.10320  -0.01285  -0.00500   0.00799
  52  N 4   d 1     -0.21840   0.29403   0.35440  -0.05728   0.11630  -0.25710
  53  N 4   d 2      0.34514   0.17675   0.30725   0.21396  -0.03983  -0.20034
  54  N 4   d 3     -0.04042   0.02945   0.06236   0.08303  -0.23455   0.48372
  55  N 4   d 4      0.30000   0.27125  -0.26087   0.25760  -0.14514   0.04448
  56  N 4   d 5     -0.09572  -0.05301  -0.00572   0.48083  -0.14776  -0.16425
                        49        50        51        52        53        54
 eigenvalues:          2.901     2.910     3.340     3.343     3.346     3.546
   1  N 1   s       -0.00021  -0.00021  -0.00785  -0.00232  -0.00930   0.00178
   2  N 1   s       -0.00335  -0.00314   0.43799   0.11645   0.42076   0.00158
   3  N 1   s        0.00816   0.00746  -2.75985  -0.75228  -2.78730   0.04184
   4  N 1   px      -0.04808   0.04500  -0.01605  -0.12441  -0.02369  -0.02979
   5  N 1   py       0.06421   0.01533  -0.11184   0.04856   0.02755  -0.00776
   6  N 1   pz      -0.01877  -0.06289   0.02912   0.04704  -0.11765   0.04942
   7  N 1   px      -0.10409   0.09992   0.85848   0.71381   0.87769   0.29967
   8  N 1   py       0.13470   0.03305   1.25752   0.02355   0.68757   0.09498
   9  N 1   pz      -0.04183  -0.14349   0.66063   0.01980   1.24130  -0.43806
  10  N 1   d 1      0.03060   0.10287  -0.54792  -0.24306  -0.24599  -0.51933
  11  N 1   d 2      0.07608  -0.07065  -0.43264   0.13724  -0.45020   0.40059
  12  N 1   d 3      0.14069   0.52584   0.14162   0.11806  -0.15041   0.43573
  13  N 1   d 4     -0.09721  -0.02269  -0.22770  -0.22611  -0.54354   0.14604
  14  N 1   d 5      0.50977  -0.14516   0.12538  -0.20739  -0.05594  -0.12211
  15  N 2   s        0.00004  -0.00013   0.00828   0.00628  -0.00529  -0.00141
  16  N 2   s        0.00013  -0.00231  -0.46545  -0.32871   0.24504  -0.00142
  17  N 2   s       -0.00370   0.00496   2.95581   2.10426  -1.61957  -0.03188
  18  N 2   px       0.04695  -0.04589  -0.01445  -0.11256  -0.05425  -0.02152
  19  N 2   py      -0.06397  -0.01584  -0.11098   0.05909  -0.00575  -0.01776
  20  N 2   pz      -0.01721  -0.06247  -0.01718   0.02568  -0.12384  -0.04776
  21  N 2   px       0.10024  -0.10090   0.90709   1.05495  -0.23727   0.21797
  22  N 2   py      -0.14057  -0.03562   1.29927   0.36346  -0.43325   0.18530
  23  N 2   pz      -0.03765  -0.14143  -0.77873  -0.70480   0.95626   0.42856
  24  N 2   d 1      0.03193   0.09575   0.55724   0.31425  -0.01177   0.52176
  25  N 2   d 2     -0.06565   0.07028  -0.48014  -0.12460   0.40537   0.28459
  26  N 2   d 3      0.14494   0.51346  -0.11445  -0.00302  -0.21471  -0.44116
  27  N 2   d 4      0.09662   0.02725  -0.27514  -0.49607   0.29997   0.23909
  28  N 2   d 5      0.51029  -0.13878  -0.11977   0.20673   0.05887   0.01806
  29  N 3   s       -0.00015   0.00004  -0.00485   0.00671   0.01017  -0.00037
  30  N 3   s       -0.00235   0.00019   0.26017  -0.32150  -0.45706  -0.00027
  31  N 3   s        0.00435  -0.00398  -1.64539   2.09590   3.00412  -0.00960
  32  N 3   px       0.04731  -0.04611  -0.05518  -0.11494  -0.02205   0.02806
  33  N 3   py       0.06469   0.01687  -0.12389   0.02471  -0.01727   0.01315
  34  N 3   pz       0.01830   0.06319  -0.00722   0.05791  -0.11538  -0.01262
  35  N 3   px       0.10279  -0.10351  -0.25069   1.05270   0.93319  -0.24020
  36  N 3   py       0.13708   0.03715   0.96663  -0.69118  -0.77634  -0.11320
  37  N 3   pz       0.03880   0.13784  -0.44207   0.36035   1.30386   0.11942
  38  N 3   d 1     -0.02672  -0.10397   0.29856  -0.48978  -0.27740   0.14881
  39  N 3   d 2     -0.07635   0.08124   0.40103  -0.11827  -0.48206  -0.28842
  40  N 3   d 3      0.14184   0.52353   0.05759  -0.17677   0.15134   0.12978
  41  N 3   d 4     -0.10458  -0.02144  -0.02418   0.31077   0.55837  -0.14006
  42  N 3   d 5      0.52387  -0.14824   0.21300   0.10652   0.04603  -0.20944
  43  N 4   s        0.00010   0.00011   0.00426  -0.01068   0.00456   0.00001
  44  N 4   s        0.00105   0.00109  -0.22373   0.53366  -0.21790   0.00011
  45  N 4   s       -0.00707  -0.00684   1.44608  -3.44785   1.40617  -0.00037
  46  N 4   px      -0.04614   0.04697  -0.05265  -0.10310  -0.05361   0.03651
  47  N 4   py      -0.06407  -0.01616  -0.12577   0.01398   0.01668   0.02286
  48  N 4   pz       0.01795   0.06305   0.01876   0.01511  -0.12518   0.01360
  49  N 4   px      -0.09917   0.10467  -0.19990   1.39380  -0.18399  -0.32106
  50  N 4   py      -0.14207  -0.03708   0.91929  -1.03781   0.33263  -0.20142
  51  N 4   pz       0.03736   0.13634   0.33558  -1.03865   0.89942  -0.11994
  52  N 4   d 1     -0.02597  -0.09610  -0.28954   0.56842   0.02569  -0.15148
  53  N 4   d 2      0.08050  -0.06624   0.36468  -0.38000   0.36248  -0.39394
  54  N 4   d 3      0.14316   0.51326  -0.07952   0.06323   0.21897  -0.12058
  55  N 4   d 4      0.10425   0.02777   0.01741   0.57323  -0.28514  -0.24254
  56  N 4   d 5      0.52286  -0.14077  -0.21569  -0.10492  -0.04583   0.31194
                        55        56
 eigenvalues:          3.552     3.558
   1  N 1   s       -0.00054   0.00179
   2  N 1   s       -0.00057   0.00213
   3  N 1   s       -0.01231   0.03950
   4  N 1   px      -0.00212   0.04204
   5  N 1   py       0.00847  -0.04723
   6  N 1   pz      -0.00997   0.01718
   7  N 1   px       0.00776  -0.33414
   8  N 1   py      -0.07895   0.41704
   9  N 1   pz       0.08399  -0.12400
  10  N 1   d 1      0.09737  -0.12599
  11  N 1   d 2     -0.00160  -0.38365
  12  N 1   d 3     -0.08015   0.11548
  13  N 1   d 4     -0.10391   0.53609
  14  N 1   d 5     -0.05598   0.45202
  15  N 2   s        0.00025  -0.00036
  16  N 2   s        0.00080  -0.00014
  17  N 2   s        0.00242  -0.00944
  18  N 2   px      -0.03534  -0.02495
  19  N 2   py       0.04270   0.01533
  20  N 2   pz       0.00875  -0.01187
  21  N 2   px       0.30507   0.22733
  22  N 2   py      -0.38200  -0.12759
  23  N 2   pz      -0.07842   0.10739
  24  N 2   d 1     -0.09726   0.13195
  25  N 2   d 2      0.37615   0.28874
  26  N 2   d 3      0.08189  -0.11160
  27  N 2   d 4     -0.47313  -0.15615
  28  N 2   d 5      0.41134   0.21003
  29  N 3   s        0.00027  -0.00142
  30  N 3   s        0.00089  -0.00209
  31  N 3   s        0.00250  -0.02909
  32  N 3   px       0.03342   0.03140
  33  N 3   py      -0.00972   0.04909
  34  N 3   pz      -0.04459   0.02611
  35  N 3   px      -0.30289  -0.24807
  36  N 3   py       0.08468  -0.42737
  37  N 3   pz       0.38904  -0.20142
  38  N 3   d 1      0.47938  -0.24066
  39  N 3   d 2     -0.37488  -0.29279
  40  N 3   d 3      0.40128  -0.19645
  41  N 3   d 4      0.10413  -0.53374
  42  N 3   d 5     -0.13129  -0.39916
  43  N 4   s        0.00002  -0.00001
  44  N 4   s       -0.00112   0.00010
  45  N 4   s        0.00739  -0.00097
  46  N 4   px       0.00041  -0.03542
  47  N 4   py      -0.04363  -0.01425
  48  N 4   pz       0.04363  -0.02105
  49  N 4   px      -0.00452   0.31420
  50  N 4   py       0.38659   0.12663
  51  N 4   pz      -0.38441   0.18665
  52  N 4   d 1     -0.47847   0.23689
  53  N 4   d 2     -0.00326   0.39017
  54  N 4   d 3     -0.40084   0.19199
  55  N 4   d 4      0.47403   0.15357
  56  N 4   d 5     -0.22754  -0.26677

          Ground-State Mulliken Net Atomic Charges

     Atom                 Charge (a.u.)
  ----------------------------------------
      1 N                     0.000008
      2 N                    -0.001017
      3 N                     0.001035
      4 N                    -0.000025
  ----------------------------------------
  Sum of atomic charges =     0.000000

 -----------------------------------------------------------------
                    Cartesian Multipole Moments
 -----------------------------------------------------------------
    Charge (ESU x 10^10)
                 0.0000
    Dipole Moment (Debye)
         X      -0.0001      Y       0.0083      Z      -0.0084
       Tot       0.0118
    Quadrupole Moments (Debye-Ang)
        XX     -22.8984     XY       0.0094     YY     -22.8618
        XZ      -0.0094     YZ      -0.0003     ZZ     -22.9344
    Octopole Moments (Debye-Ang^2)
       XXX      -0.0002    XXY      -0.0657    XYY      -0.0219
       YYY      -0.1488    XXZ       0.0659    XYZ      -2.2620
       YYZ       0.0441    XZZ       0.0216    YZZ      -0.0440
       ZZZ       0.1482
    Hexadecapole Moments (Debye-Ang^3)
      XXXX     -55.0222   XXXY      -0.0760   XXYY     -19.1153
      XYYY      -0.0867   YYYY     -55.2426   XXXZ       0.0762
      XXYZ       0.0007   XYYZ       0.0043   YYYZ      -0.0095
      XXZZ     -19.0022   XYZZ      -0.0039   YYZZ     -19.0590
      XZZZ       0.0861   YZZZ       0.0112   ZZZZ     -54.8066
 -----------------------------------------------------------------
Archival summary:
1\1\He\SP\HF\BasisUnspecified\4\vladimir\WedMay1706:31:452017WedMay1706:31:452017\0\\#,HF,BasisUnspecified,\\0,1\N\N,1,1.46376\N,1,1.47078,2,60.1608\N,3,1.47078,1,60,2,-71.0498,0\\HF=-217.314008\\@

 Total job time:  0.85s(wall), 4.39s(cpu) 
 Wed May 17 06:31:45 2017

======= MOLDEN-FORMATTED INPUT FILE FOLLOWS =======
[Molden Format]
[Atoms] (Angs)
  N      1    7      0.52000000      0.53000000      0.51000000
  N      2    7     -0.52000000     -0.52000000      0.52000000
  N      3    7     -0.52000000      0.52000000     -0.52000000
  N      4    7      0.52000000     -0.52000000     -0.52000000
[GTO]
1    0
S    5    1.000000
   1.71284159E+03   -5.39341253E-03 
   2.57648127E+02   -4.02215811E-02 
   5.84582459E+01   -1.79311450E-01 
   1.61983679E+01   -4.63763178E-01 
   5.00526008E+00   -4.41714227E-01 
S    1    1.000000
   5.87318566E-01    1.00000000E+00 
S    1    1.000000
   1.87645923E-01    1.00000000E+00 
P    3    1.000000
   1.35714702E+01   -4.00723989E-02 
   2.92573729E+00   -2.18070450E-01 
   7.99277508E-01   -5.12944660E-01 
P    1    1.000000
   2.19543480E-01    1.00000000E+00 
D    1    1.000000
   1.00000000E+00    1.00000000E+00 

2    0
S    5    1.000000
   1.71284159E+03   -5.39341253E-03 
   2.57648127E+02   -4.02215811E-02 
   5.84582459E+01   -1.79311450E-01 
   1.61983679E+01   -4.63763178E-01 
   5.00526008E+00   -4.41714227E-01 
S    1    1.000000
   5.87318566E-01    1.00000000E+00 
S    1    1.000000
   1.87645923E-01    1.00000000E+00 
P    3    1.000000
   1.35714702E+01   -4.00723989E-02 
   2.92573729E+00   -2.18070450E-01 
   7.99277508E-01   -5.12944660E-01 
P    1    1.000000
   2.19543480E-01    1.00000000E+00 
D    1    1.000000
   1.00000000E+00    1.00000000E+00 

3    0
S    5    1.000000
   1.71284159E+03   -5.39341253E-03 
   2.57648127E+02   -4.02215811E-02 
   5.84582459E+01   -1.79311450E-01 
   1.61983679E+01   -4.63763178E-01 
   5.00526008E+00   -4.41714227E-01 
S    1    1.000000
   5.87318566E-01    1.00000000E+00 
S    1    1.000000
   1.87645923E-01    1.00000000E+00 
P    3    1.000000
   1.35714702E+01   -4.00723989E-02 
   2.92573729E+00   -2.18070450E-01 
   7.99277508E-01   -5.12944660E-01 
P    1    1.000000
   2.19543480E-01    1.00000000E+00 
D    1    1.000000
   1.00000000E+00    1.00000000E+00 

4    0
S    5    1.000000
   1.71284159E+03   -5.39341253E-03 
   2.57648127E+02   -4.02215811E-02 
   5.84582459E+01   -1.79311450E-01 
   1.61983679E+01   -4.63763178E-01 
   5.00526008E+00   -4.41714227E-01 
S    1    1.000000
   5.87318566E-01    1.00000000E+00 
S    1    1.000000
   1.87645923E-01    1.00000000E+00 
P    3    1.000000
   1.35714702E+01   -4.00723989E-02 
   2.92573729E+00   -2.18070450E-01 
   7.99277508E-01   -5.12944660E-01 
P    1    1.000000
   2.19543480E-01    1.00000000E+00 
D    1    1.000000
   1.00000000E+00    1.00000000E+00 

[MO]
Sym=X
Ene= -15.752733
Spin=Alpha
Occup=1
     1    5.016172737874e-01
     2   -1.707535399040e-02
     3    4.741250782293e-03
     4   -1.181789292547e-03
     5   -1.194823819592e-03
     6   -1.169649866522e-03
     7   -1.372678203028e-03
     8   -1.374645598323e-03
     9   -1.389456651028e-03
    10   -1.758949490108e-05
    11    4.186432370356e-04
    12    4.234535162243e-04
    13   -8.498618363110e-06
    14    4.330372612629e-04
    15    5.069090159210e-01
    16   -1.721167328197e-02
    17    4.735954055802e-03
    18    1.186645481301e-03
    19    1.192257275649e-03
    20   -1.197913538675e-03
    21    1.339888563244e-03
    22    1.339597306414e-03
    23   -1.388256749326e-03
    24   -5.066231379720e-06
    25   -4.273344376204e-04
    26   -4.183115653097e-04
    27   -7.084368137784e-07
    28    4.215424074575e-04
    29    4.828538451555e-01
    30   -1.649806053229e-02
    31    4.417831613312e-03
    32    1.146373431060e-03
    33   -1.138074499260e-03
    34    1.139688153418e-03
    35    1.351035880407e-03
    36   -1.332622821551e-03
    37    1.332640871140e-03
    38    3.257288083248e-06
    39    4.431147389844e-04
    40   -4.372309774508e-04
    41    1.229842442078e-06
    42   -4.228740795210e-04
    43    4.908789507935e-01
    44   -1.672366273180e-02
    45    4.475682108747e-03
    46   -1.158738661524e-03
    47    1.163812243930e-03
    48    1.151549429127e-03
    49   -1.337276524258e-03
    50    1.331341501220e-03
    51    1.313227194842e-03
    52    2.792094161189e-06
    53   -4.403702276798e-04
    54    4.330611086444e-04
    55   -1.839992735506e-06
    56   -4.170065446374e-04
Sym=X
Ene= -15.752071
Spin=Alpha
Occup=1
     1   -5.894257445913e-01
     2    1.937294380942e-02
     3   -1.482517157482e-02
     4    1.342773224461e-03
     5    1.358977995164e-03
     6    1.219662959433e-03
     7    3.541244164914e-03
     8    3.726049544803e-03
     9    1.545276340696e-03
    10   -3.689671381911e-04
    11    3.310790838055e-05
    12    6.492562449303e-05
    13   -2.347913098272e-05
    14    6.062701332164e-04
    15    7.819429073504e-01
    16   -2.565042297122e-02
    17    1.974888464398e-02
    18    1.737521368223e-03
    19    1.751705647612e-03
    20   -1.704304587028e-03
    21    4.192141867733e-03
    22    4.364287571656e-03
    23   -3.183073585971e-03
    24    1.934455241963e-04
    25    2.155402247018e-04
    26    2.556420042565e-04
    27    2.492788832768e-05
    28   -5.226302997675e-04
    29   -1.338009341132e-01
    30    4.410872480276e-03
    31   -3.327287835008e-03
    32   -1.793898269023e-04
    33    3.963242471428e-04
    34   -3.106405263490e-04
    35    1.065226336742e-03
    36    2.152882347835e-03
    37   -9.283025584525e-04
    38    7.590330704389e-05
    39   -3.723844016896e-04
    40   -5.441700710569e-04
    41   -5.250504205278e-04
    42    1.894609632500e-05
    43   -7.354045193585e-02
    44    2.413617062969e-03
    45   -1.744239556865e-03
    46    2.581723196277e-04
    47   -4.673353883567e-05
    48   -1.885323968906e-04
    49    1.765807192027e-03
    50    1.453110462581e-03
    51   -7.136844131512e-04
    52    1.068372663597e-04
    53   -5.287067649047e-04
    54   -3.718850793024e-04
    55    5.214682555533e-04
    56    7.333813621419e-05
Sym=X
Ene= -15.752046
Spin=Alpha
Occup=1
     1   -4.942807509294e-01
     2    1.622137237817e-02
     3   -1.255364409596e-02
     4    1.008720620481e-03
     5    1.136069734797e-03
     6    1.169173157573e-03
     7    9.988201290104e-04
     8    2.900719617439e-03
     9    3.522221378358e-03
    10    3.010895828034e-04
    11    1.179926280268e-04
    12    6.367317654434e-04
    13   -3.018508923784e-04
    14   -9.133205520046e-05
    15   -2.959895664726e-01
    16    9.690460414006e-03
    17   -7.486139700767e-03
    18   -6.756131349663e-04
    19   -5.523520560623e-04
    20    7.537535653176e-04
    21   -1.711481043292e-03
    22    1.817005726647e-04
    23    2.852070004051e-03
    24    3.906222810156e-04
    25   -5.913403070065e-04
    26   -6.497254962948e-05
    27    3.051797737993e-04
    28   -2.538569804473e-04
    29    4.471914772079e-03
    30   -1.419618103911e-04
    31   -1.869821469204e-05
    32   -2.805804195984e-05
    33    6.829845863709e-05
    34    1.403474583992e-04
    35   -6.947174389411e-04
    36    1.188704896841e-03
    37    1.840663179201e-03
    38   -5.260193952382e-04
    39   -3.366950701459e-04
    40    1.916365473427e-04
    41   -8.110714147315e-05
    42   -5.339854929314e-04
    43    8.063574630253e-01
    44   -2.648398451152e-02
    45    2.025244643781e-02
    46   -1.763527891939e-03
    47    1.799177286180e-03
    48    1.835225411403e-03
    49   -3.464011971038e-03
    50    3.952228942197e-03
    51    4.596304896028e-03
    52   -1.710054399787e-04
    53    3.590943560473e-04
    54   -4.899458951552e-04
    55    7.687518147471e-05
    56    1.626248589280e-04
Sym=X
Ene= -15.752028
Spin=Alpha
Occup=1
     1   -3.727353315227e-01
     2    1.221880126055e-02
     3   -9.509924635930e-03
     4    9.119761169423e-04
     5    7.225976817809e-04
     6    8.857354490268e-04
     7    2.876605382925e-03
     8    1.856465297227e-04
     9    2.539639702253e-03
    10    1.996797768548e-04
    11    6.683440358319e-04
    12   -1.038606530473e-04
    13    4.500658130919e-04
    14   -2.175729640950e-05
    15   -1.621813492697e-01
    16    5.308083216523e-03
    17   -4.208382535779e-03
    18   -2.397743114500e-04
    19   -4.182371906603e-04
    20    4.289591794363e-04
    21    1.027653256045e-03
    22   -1.661791553160e-03
    23    1.827182419381e-03
    24    2.833594349858e-04
    25    1.577756203150e-04
    26   -5.956228982239e-04
    27   -4.298911493672e-04
    28   -2.033905347680e-04
    29    8.551026673138e-01
    30   -2.812045205958e-02
    31    2.154177325423e-02
    32    1.951775641531e-03
    33   -1.882539989950e-03
    34    1.926218835847e-03
    35    4.541004211671e-03
    36   -4.006482400139e-03
    37    4.213230505925e-03
    38    4.062608223543e-06
    39   -4.428816973578e-04
    40    2.768218233154e-04
    41   -9.484951102400e-05
    42    3.632500286713e-04
    43   -2.927543896343e-01
    44    9.611681655575e-03
    45   -7.557461931766e-03
    46    7.264321378928e-04
    47   -6.948700777711e-04
    48   -5.355872694581e-04
    49    2.606980211744e-03
    50   -2.117288055041e-03
    51    2.436406239842e-04
    52   -4.855874549309e-04
    53    4.434459237926e-05
    54   -1.834029454699e-04
    55    8.251935863996e-05
    56   -6.244652658892e-04
Sym=X
Ene= -1.667805
Spin=Alpha
Occup=1
     1    1.300430585241e-01
     2    2.620562057135e-01
     3    7.031018334452e-02
     4    7.855570592978e-02
     5    7.862071506463e-02
     6    7.846121398431e-02
     7   -2.183350004936e-02
     8   -2.203460926072e-02
     9   -2.163580647106e-02
    10   -1.836528304923e-04
    11    1.333743245575e-02
    12    1.338650850715e-02
    13   -1.044469169596e-04
    14    1.343986489591e-02
    15    1.291802300479e-01
    16    2.603998183758e-01
    17    6.925777065396e-02
    18   -7.740616079704e-02
    19   -7.790644114059e-02
    20    7.882039149545e-02
    21    2.144328040644e-02
    22    2.144329441660e-02
    23   -2.165590212787e-02
    24    1.145006106912e-04
    25   -1.338552728223e-02
    26   -1.342375180862e-02
    27   -1.022502625728e-04
    28    1.321981071919e-02
    29    1.309057747198e-01
    30    2.637089755717e-01
    31    7.142950988910e-02
    32   -7.969096589708e-02
    33    7.824358509592e-02
    34   -7.917296362448e-02
    35    2.225369428577e-02
    36   -2.202494390487e-02
    37    2.224810452258e-02
    38   -3.350492302883e-05
    39    1.355887529455e-02
    40   -1.335032448060e-02
    41    1.533557952789e-04
    42   -1.338792687274e-02
    43    1.300319765836e-01
    44    2.620336513957e-01
    45    7.033096613930e-02
    46    7.854055102473e-02
    47   -7.904154601633e-02
    48   -7.802353757042e-02
    49   -2.184062303729e-02
    50    2.184546874516e-02
    51    2.183993688860e-02
    52   -1.801147211763e-04
    53   -1.335034319040e-02
    54    1.338634532434e-02
    55   -1.038152789492e-04
    56   -1.342619944900e-02
Sym=X
Ene= -1.045909
Spin=Alpha
Occup=1
     1   -1.595433562271e-01
     2   -3.381993531987e-01
     3   -3.078479279592e-01
     4   -2.992555417033e-02
     5    1.023983494882e-01
     6   -9.446548278102e-02
     7    4.294988829028e-02
     8    8.858343666769e-03
     9    5.996679663910e-02
    10   -1.295883641333e-02
    11   -1.416169719542e-02
    12   -3.541115887649e-05
    13   -1.143607769168e-02
    14    7.102156594995e-03
    15    1.710290536224e-01
    16    3.624314217939e-01
    17    3.297608437837e-01
    18   -3.434308168493e-02
    19    9.578918167864e-02
    20    8.249759310269e-02
    21    4.653494776293e-02
    22    1.289877474863e-02
    23   -5.990963399452e-02
    24    1.138007191643e-02
    25   -1.353203025066e-02
    26    5.511762339609e-04
    27    1.125043789292e-02
    28   -5.738382880596e-03
    29   -9.353325383360e-02
    30   -1.982875583594e-01
    31   -1.809483549036e-01
    32    1.079239955581e-01
    33    1.394218385580e-01
    34    4.194339620499e-02
    35   -4.908066729138e-02
    36   -1.562793102608e-02
    37   -3.168854216923e-02
    38   -5.592208542016e-03
    39   -1.664011701781e-02
    40   -1.014134378675e-02
    41   -2.134152225212e-02
    42   -3.135887249903e-03
    43    8.340089127996e-02
    44    1.766956801686e-01
    45    1.616312418877e-01
    46    1.006919525323e-01
    47    1.429620368009e-01
    48   -5.313135963312e-02
    49   -4.500603430997e-02
    50   -1.848986712276e-02
    51    3.249993497325e-02
    52    7.458629321515e-03
    53   -1.701140172494e-02
    54   -9.228176561514e-03
    55    2.121626062363e-02
    56    4.078226844402e-03
Sym=X
Ene= -1.042470
Spin=Alpha
Occup=1
     1    4.394196577133e-02
     2    9.315429247464e-02
     3    8.555105205111e-02
     4   -1.563303370252e-01
     5    8.079666102337e-02
     6    8.015371052672e-02
     7    3.130355925901e-02
     8   -3.087999210212e-02
     9   -3.115771110529e-02
    10    1.171025947752e-02
    11   -7.815547462183e-03
    12    1.762018624084e-02
    13   -2.055497170368e-02
    14   -8.020264397376e-03
    15   -1.211460489516e-01
    16   -2.568280308151e-01
    17   -2.349501440459e-01
    18   -1.153251654926e-01
    19    1.204272720909e-01
    20   -7.436635202689e-03
    21    3.504419494375e-03
    22   -5.841309309428e-02
    23    2.911768308720e-02
    24   -4.090083879636e-04
    25   -1.091387237611e-02
    26    1.459133817195e-02
    27    2.034432293389e-02
    28   -1.251662400933e-03
    29   -1.205532032363e-01
    30   -2.555492869819e-01
    31   -2.355258231694e-01
    32   -1.157405862522e-01
    33   -6.472230455554e-03
    34    1.221502335796e-01
    35    3.219402607014e-03
    36    2.862142906972e-02
    37   -5.951166617986e-02
    38   -1.766305714665e-02
    39   -1.426817945036e-03
    40    1.450643722297e-02
    41    1.066865205662e-02
    42   -1.106969148495e-02
    43    1.977589437415e-01
    44    4.192270263761e-01
    45    3.849345487649e-01
    46   -7.470843733279e-02
    47   -4.881242407227e-02
    48   -4.670017972972e-02
    49   -2.459223693494e-02
    50    5.731310638502e-02
    51    5.632281512772e-02
    52    5.826980875897e-03
    53    1.774791574038e-03
    54    1.147485317853e-02
    55   -1.076380257867e-02
    56    1.686200709397e-03
Sym=X
Ene= -1.039081
Spin=Alpha
Occup=1
     1   -1.590647720730e-01
     2   -3.372229538806e-01
     3   -3.122752363134e-01
     4   -2.480889095652e-02
     5   -9.189146075192e-02
     6    1.051582263401e-01
     7    4.273745610338e-02
     8    6.036036405041e-02
     9    7.784126139719e-03
    10    1.639415403208e-02
    11    7.488995615541e-03
    12    4.276124887285e-04
    13    5.882177018622e-03
    14   -1.373222687827e-02
    15   -9.460317740797e-02
    16   -2.005439252576e-01
    17   -1.852310685034e-01
    18    1.062313112568e-01
    19    4.049210186279e-02
    20    1.374305780839e-01
    21   -4.936603990977e-02
    22   -3.209500269163e-02
    23   -1.514166414935e-02
    24    2.118685744386e-02
    25   -2.511140920236e-03
    26   -9.704634988564e-03
    27   -5.567435043772e-03
    28   -1.646220793546e-02
    29    1.709195968558e-01
    30    3.624693154288e-01
    31    3.358132996314e-01
    32   -3.275292125846e-02
    33    8.161367459166e-02
    34    9.941528252375e-02
    35    4.763542663074e-02
    36   -5.977876946072e-02
    37    1.221917195817e-02
    38   -1.561641952859e-02
    39   -6.050241671607e-03
    40    7.694173848912e-04
    41   -4.163272054534e-03
    42   -1.343621181614e-02
    43    8.138563789131e-02
    44    1.726336442141e-01
    45    1.590659989107e-01
    46    1.010855486473e-01
    47   -5.166327152826e-02
    48    1.462178599956e-01
    49   -4.496725994191e-02
    50    3.193666525508e-02
    51   -2.076067138300e-02
    52   -2.209509797786e-02
    53    4.373500404500e-03
    54   -9.679236527694e-03
    55    4.244118701443e-03
    56   -1.703141509054e-02
Sym=X
Ene= -0.694095
Spin=Alpha
Occup=1
     1    6.420971536581e-02
     2    1.287552902156e-01
     3    1.842458382561e-01
     4   -1.670688083318e-01
     5   -1.694395610746e-01
     6   -1.647077503886e-01
     7    8.098115589557e-02
     8    8.246271105411e-02
     9    7.951464773396e-02
    10    4.690503370842e-04
    11   -2.037282525694e-02
    12   -2.077441676755e-02
    13    2.747063802628e-04
    14   -2.118019487301e-02
    15    6.419687698979e-02
    16    1.287848557397e-01
    17    1.846431182419e-01
    18    1.653205133650e-01
    19    1.662015021267e-01
    20   -1.661445038092e-01
    21   -8.003537563291e-02
    22   -8.027274150956e-02
    23    8.010294714751e-02
    24   -8.734560827965e-05
    25    2.060938954073e-02
    26    2.072429025474e-02
    27    9.616670633973e-05
    28   -2.073204634572e-02
    29    6.420766298799e-02
    30    1.286900328224e-01
    31    1.837676766997e-01
    32    1.688418782712e-01
    33   -1.679712535604e-01
    34    1.679798551036e-01
    35   -8.197009964515e-02
    36    8.187043900304e-02
    37   -8.173954002744e-02
    38    3.321339388582e-05
    39   -2.083428949881e-02
    40    2.083464211574e-02
    41   -1.319655244093e-04
    42    2.094940050529e-02
    43    6.420787001634e-02
    44    1.287478546264e-01
    45    1.842361806458e-01
    46   -1.670457354128e-01
    47    1.679454409165e-01
    48    1.662024205685e-01
    49    8.097193713543e-02
    50   -8.122589994426e-02
    51   -8.075791771815e-02
    52    1.638183222453e-04
    53    2.066336098185e-02
    54   -2.078153336554e-02
    55    9.808210611166e-05
    56    2.089297338312e-02
Sym=X
Ene= -0.578091
Spin=Alpha
Occup=1
     1   -7.210311357118e-02
     2   -1.673067908547e-01
     3   -1.257256637117e-01
     4    4.158038233143e-02
     5    3.174610466768e-02
     6    2.958346768431e-01
     7   -4.840856989706e-02
     8   -4.329419758080e-02
     9   -1.856197553867e-01
    10    2.397053101191e-02
    11    8.171592776642e-03
    12    7.409780950488e-03
    13    3.811058180366e-04
    14   -4.082071748669e-03
    15    1.183415559747e-01
    16    2.748973912759e-01
    17    2.060758535639e-01
    18    1.656391320526e-01
    19    1.695536158561e-01
    20   -2.608412778462e-01
    21   -1.315186349746e-01
    22   -1.346182445624e-01
    23    1.834428853170e-01
    24   -8.396985861366e-03
    25    7.156060565582e-03
    26    7.713115022681e-03
    27   -5.757219632583e-05
    28   -3.296754117460e-03
    29   -2.375705289173e-02
    30   -5.504473982670e-02
    31   -4.160368426372e-02
    32   -2.459962927995e-01
    33   -1.106432434882e-01
    34    1.589009629279e-02
    35    1.416325571794e-01
    36    5.119464747066e-02
    37   -4.164716013878e-04
    38   -7.848602094901e-03
    39    8.017861778024e-03
    40    8.323076490896e-03
    41    2.829276644769e-02
    42   -3.473003660590e-03
    43   -2.196452442803e-02
    44   -5.088701594694e-02
    45   -3.878994805565e-02
    46   -1.055217155183e-01
    47   -2.347195847324e-01
    48    2.241392557636e-02
    49    4.888314928852e-02
    50    1.336874064568e-01
    51   -4.497599842368e-03
    52   -8.068514043114e-03
    53    7.705178331630e-03
    54    6.955977093708e-03
    55   -2.790296193924e-02
    56   -3.595007241155e-03
Sym=X
Ene= -0.576976
Spin=Alpha
Occup=1
     1   -7.051876561701e-02
     2   -1.638220668480e-01
     3   -1.221595676627e-01
     4    2.944263285909e-01
     5    2.869793218877e-02
     6    3.327341433832e-02
     7   -1.849441432626e-01
     8   -4.138798236587e-02
     9   -4.343797260919e-02
    10   -1.251481851232e-02
    11    7.892129166229e-03
    12   -4.335145871642e-03
    13    2.086239892214e-02
    14    7.090379391174e-03
    15   -2.609483370986e-02
    16   -6.061749353344e-02
    17   -4.553145730324e-02
    18    1.306622648203e-02
    19   -2.368505684990e-01
    20   -9.558854748359e-02
    21    2.572704787370e-03
    22    1.363685274336e-01
    23    4.205364844094e-02
    24   -1.997612154151e-02
    25    6.974707536827e-03
    26   -3.864408361956e-03
    27   -2.045143678291e-02
    28    6.983460175154e-03
    29   -2.189230446572e-02
    30   -5.085919915899e-02
    31   -3.756963569038e-02
    32    2.257645607406e-02
    33   -1.133702990368e-01
    34   -2.501935539818e-01
    35   -4.238749347558e-03
    36    5.351133926946e-02
    37    1.444169808158e-01
    38    2.876800165830e-02
    39    8.418587717408e-03
    40   -3.669964496109e-03
    41    6.698874859399e-03
    42    8.727492182213e-03
    43    1.184963350921e-01
    44    2.753094034521e-01
    45    2.051561509474e-01
    46   -2.560742777455e-01
    47    1.818948279658e-01
    48    1.606350305604e-01
    49    1.815960765972e-01
    50   -1.425189819443e-01
    51   -1.291247008581e-01
    52    4.826474647400e-03
    53    6.377756448314e-03
    54   -3.480154692634e-03
    55   -6.344516287916e-03
    56    8.045576517877e-03
Sym=X
Ene= -0.575797
Spin=Alpha
Occup=1
     1   -7.041184291975e-02
     2   -1.638033527815e-01
     3   -1.209619285838e-01
     4    2.537837896632e-02
     5    2.928387946296e-01
     6    3.287933698157e-02
     7   -3.976426605635e-02
     8   -1.846874399454e-01
     9   -4.359186378909e-02
    10   -1.199390888690e-02
    11   -4.325071686318e-03
    12    7.496684900137e-03
    13   -2.123777908236e-02
    14    6.882996608665e-03
    15   -2.370674933259e-02
    16   -5.522004040535e-02
    17   -4.059770811537e-02
    18   -2.407355080965e-01
    19    1.871590318278e-02
    20   -1.016146894151e-01
    21    1.388639148835e-01
    22   -9.557051541380e-04
    23    4.631746596454e-02
    24   -1.992824089781e-02
    25   -4.000186617706e-03
    26    7.470712209709e-03
    27    2.086372288155e-02
    28    7.455277857278e-03
    29    1.182256551560e-01
    30    2.747410313890e-01
    31    2.033801772597e-01
    32    1.748525009637e-01
    33   -2.544858926879e-01
    34    1.701750980452e-01
    35   -1.388795060964e-01
    36    1.814609963868e-01
    37   -1.354241194751e-01
    38    3.973943410010e-03
    39   -3.433360228841e-03
    40    6.809201142876e-03
    41    6.791296611231e-03
    42    7.356351065913e-03
    43   -2.462025688496e-02
    44   -5.735441669606e-02
    45   -4.178795852883e-02
    46   -1.069119572199e-01
    47    1.463265222084e-02
    48   -2.502411218150e-01
    49    4.896558321415e-02
    50    1.541654945114e-03
    51    1.455098539733e-01
    52    2.828659743370e-02
    53   -3.896526360788e-03
    54    8.371269067887e-03
    55   -7.086707546491e-03
    56    8.073134337072e-03
Sym=X
Ene= -0.549742
Spin=Alpha
Occup=1
     1    2.080095948102e-03
     2    5.464354608197e-03
     3    1.287246002653e-03
     4    1.859421339141e-01
     5   -2.582565452298e-01
     6    6.601352782819e-02
     7   -1.221713767674e-01
     8    1.724217688370e-01
     9   -4.264027224967e-02
    10    2.423903353856e-03
    11    2.599444946213e-02
    12   -1.917033976823e-02
    13    9.076821938571e-03
    14   -6.965665244183e-03
    15   -1.232769845342e-03
    16   -2.726168167184e-03
    17   -2.021236776656e-03
    18   -1.966855267391e-01
    19    2.636096020808e-01
    20    7.489270415174e-02
    21    1.302741076488e-01
    22   -1.737491317453e-01
    23   -4.969162124764e-02
    24    3.043039982243e-03
    25   -2.650775242369e-02
    26    1.931778603594e-02
    27    1.013124918046e-02
    28   -7.108013015483e-03
    29    1.171812112596e-03
    30    3.224696115870e-03
    31    3.327832391702e-04
    32   -1.869285146643e-01
    33   -2.560510916325e-01
    34   -6.204251810494e-02
    35    1.233852447754e-01
    36    1.709469613196e-01
    37    4.058211366357e-02
    38    1.656298229531e-03
    39    2.586618416352e-02
    40    1.945252668733e-02
    41    8.662701474448e-03
    42    7.145589244748e-03
    43   -2.241959266666e-03
    44   -5.199152944837e-03
    45   -3.119786000428e-03
    46    1.975935632777e-01
    47    2.598008771697e-01
    48   -7.626762056491e-02
    49   -1.315087449992e-01
    50   -1.712084235052e-01
    51    5.119882522142e-02
    52    2.939379408809e-03
    53   -2.651392889214e-02
    54   -1.932113308474e-02
    55    1.007048797849e-02
    56    6.797627848914e-03
Sym=X
[...]
    14    2.017879396135e-01
    15   -8.266687093344e-03
    16    3.496239494776e-02
    17   -3.283253131566e-01
    18    1.130612260495e-01
    19   -2.929906490340e-02
    20    1.382424095920e-02
    21    2.046934189105e-01
    22   -2.527042666973e-01
    23    2.134861425200e-01
    24   -2.940089511018e-02
    25   -2.875013731204e-01
    26    4.191384826739e-01
    27    8.838648476586e-02
    28    2.301281804220e-01
    29    5.219121188149e-02
    30   -3.254897310093e-02
    31    1.428873770991e+00
    32   -1.355288993991e-01
    33    1.393595545177e-01
    34   -1.577175946224e-01
    35    3.862991713943e-01
    36   -3.508230764689e-01
    37    3.132345107455e-01
    38    3.585180757885e-03
    39   -1.946552258069e-01
    40    2.260475720751e-01
    41    1.340162956014e-02
    42    1.046905825995e-01
    43   -2.017426506931e-02
    44    4.381915590856e-02
    45   -6.446563722109e-01
    46   -9.765947261809e-03
    47    1.921783322530e-02
    48    1.380564764019e-01
    49    3.166208807858e-01
    50   -2.828311797635e-01
    51    1.032033735292e-01
    52    6.236267288821e-02
    53   -2.608668173888e-01
    54    3.072543200058e-01
    55   -5.715006900878e-03
    56    3.543955125225e-01
Sym=X
Ene= 2.651370
Spin=Alpha
Occup=0
     1    3.065804793820e-04
     2   -1.334775071856e-03
     3    1.398235905122e-02
     4    8.112368051745e-03
     5   -2.677420457586e-03
     6   -2.892468546533e-03
     7    9.456649996972e-03
     8   -5.999498410378e-03
     9   -1.473507569666e-02
    10    1.190995195465e-01
    11    1.498911395202e-01
    12   -1.999451995095e-01
    13   -3.759605688061e-01
    14    4.609469983007e-02
    15    1.046688964326e-03
    16   -2.596211955783e-03
    17    3.785406546819e-02
    18   -7.734108845612e-03
    19    1.630025362032e-03
    20    3.013989210810e-03
    21    2.734956696502e-03
    22    1.258042231843e-02
    23   -1.301144141800e-02
    24   -1.164879004659e-01
    25   -2.606113388913e-01
    26    1.937090050588e-01
    27   -4.795182483726e-01
    28   -7.994348265953e-02
    29   -4.941683312338e-04
    30    8.821422352800e-04
    31   -1.727775060718e-02
    32    6.203958877954e-03
    33    3.707942652859e-05
    34   -2.218063868269e-03
    35    5.426728646783e-03
    36    4.097561899650e-03
    37   -1.468350421433e-02
    38   -8.699837031537e-02
    39   -1.436586813035e-01
    40   -1.791319221550e-01
    41    3.471148566019e-01
    42    3.249974902175e-02
    43   -1.051350327281e-03
    44    1.536328256781e-03
    45   -3.394968827823e-02
    46   -5.905071809465e-03
    47    7.674521929241e-04
    48    2.519795640170e-03
    49    4.625783154431e-03
    50   -7.058607956345e-03
    51   -1.284612462539e-02
    52    8.303110739514e-02
    53    2.575976223842e-01
    54    2.139595322803e-01
    55    4.808265557198e-01
    56   -5.728403797936e-02
Sym=X
Ene= 2.657472
Spin=Alpha
Occup=0
     1    2.031513676517e-03
     2   -4.769322005013e-03
     3    7.318670089633e-02
     4    3.132484060635e-03
     5    2.013596847819e-03
     6    1.152042072533e-02
     7   -2.994871291042e-02
     8   -2.005199957078e-02
     9   -6.491038887076e-03
    10   -4.599490059364e-01
    11    2.487374261485e-01
    12   -2.483902975387e-02
    13   -2.524487396079e-01
    14   -2.496089776552e-01
    15   -1.391677429546e-03
    16    2.900828780493e-03
    17   -4.768064635775e-02
    18   -2.565712016462e-03
    19    2.639801961214e-03
    20   -1.147302556355e-02
    21   -3.083892517449e-02
    22   -1.288748065108e-02
    23   -7.415582529666e-03
    24    4.638341849413e-01
    25    1.338294729279e-01
    26    9.407818450934e-02
    27    1.139065206995e-02
    28    2.405713427321e-01
    29   -1.484558063366e-03
    30    3.317513269804e-03
    31   -5.342948745031e-02
    32    2.225361304554e-03
    33   -2.177174679371e-03
    34    7.919073341286e-03
    35   -2.536958240349e-02
    36    8.129588233736e-03
    37   -7.223667064447e-03
    38    2.387392747037e-01
    39   -2.561966265898e-01
    40   -1.400598215705e-01
    41    3.767515630670e-01
    42   -1.296619630332e-01
    43    8.307148150638e-04
    44   -1.554165687575e-03
    45    2.796584903682e-02
    46   -8.448836522631e-04
    47   -1.548892060197e-03
    48   -6.572191319869e-03
    49   -2.225357288591e-02
    50    3.149341973088e-03
    51   -4.997566208567e-03
    52   -2.345509822724e-01
    53   -1.451388151537e-01
    54   -3.983137232612e-02
    55   -1.477555359278e-01
    56    1.162989436300e-01
Sym=X
Ene= 2.662997
Spin=Alpha
Occup=0
     1    2.967226974765e-04
     2   -1.146492934764e-04
     3    7.888338258805e-03
     4    1.340796613390e-04
     5   -2.682803909698e-04
     6    2.543791436904e-03
     7   -4.435886554213e-04
     8   -8.683773033312e-03
     9    3.500877428983e-03
    10   -2.468111884563e-01
    11   -8.768105540185e-02
    12    2.152485954433e-01
    13    2.884671065139e-01
    14   -1.312489814063e-01
    15   -3.536640425370e-04
    16    1.199203966413e-03
    17   -1.380194268644e-02
    18   -1.488628519971e-03
    19   -5.049919895507e-04
    20   -4.721767729332e-03
    21   -4.445061447829e-03
    22   -1.034290951931e-02
    23   -3.603159616363e-03
    24    2.556079393017e-01
    25   -6.595751790880e-02
    26    2.018186141048e-01
    27   -2.581755299680e-01
    28    1.374029364473e-01
    29    1.143732600587e-03
    30   -1.735677802630e-03
    31    3.710981968894e-02
    32   -7.342431347670e-04
    33    7.239364216088e-04
    34   -8.254584509812e-03
    35    1.371751137274e-02
    36   -1.541993677350e-02
    37   -1.884110739008e-03
    38   -4.679707606537e-01
    39    5.606537099643e-02
    40   -1.863159666104e-01
    41    1.206979749724e-01
    42    2.551449092410e-01
    43   -9.119379283465e-04
    44    2.027826008593e-03
    45   -3.175055810458e-02
    46    2.485435644456e-03
    47    4.688789222698e-04
    48    1.001760016195e-02
    49    1.684554572564e-02
    50   -1.447549623154e-02
    51    7.985757805129e-03
    52    4.837173230885e-01
    53    4.447533753756e-02
    54   -2.003433140066e-01
    55   -1.642509437721e-01
    56   -2.571037192319e-01
Sym=X
Ene= 2.900517
Spin=Alpha
Occup=0
     1   -2.084963870730e-04
     2   -3.352020837277e-03
     3    8.160483058130e-03
     4   -4.808441255373e-02
     5    6.421430524433e-02
     6   -1.877396915545e-02
     7   -1.040857352377e-01
     8    1.346977717912e-01
     9   -4.182788442183e-02
    10    1.406927049346e-01
    11   -9.721081829235e-02
    12    7.608133679772e-02
    13    5.097721716341e-01
    14    3.060387080109e-02
    15    3.994116367041e-05
    16    1.261009343991e-04
    17   -3.698733470156e-03
    18    4.695355193953e-02
    19   -6.396545299902e-02
    20   -1.720996156423e-02
    21    1.002442317822e-01
    22   -1.405744657583e-01
    23   -3.765278988996e-02
    24    1.449350046086e-01
    25    9.661889240468e-02
    26   -6.565305850000e-02
    27    5.102939020003e-01
    28    3.193429267416e-02
    29   -1.533334063026e-04
    30   -2.354990227618e-03
    31    4.346214822294e-03
    32    4.730851567682e-02
    33    6.468848615564e-02
    34    1.829522013662e-02
    35    1.027908182615e-01
    36    1.370827841631e-01
    37    3.879953791488e-02
    38    1.418390938709e-01
    39   -1.045814711886e-01
    40   -7.635196228096e-02
    41    5.238737858406e-01
    42   -2.672341184417e-02
    43    1.023522863042e-04
    44    1.047696693960e-03
    45   -7.065955770626e-03
    46   -4.614400858538e-02
    47   -6.407298590064e-02
    48    1.795332210354e-02
    49   -9.917156540714e-02
    50   -1.420734621025e-01
    51    3.736498401279e-02
    52    1.431627854966e-01
    53    1.042545590261e-01
    54    8.049887465738e-02
    55    5.228595556941e-01
    56   -2.596823180029e-02
Sym=X
Ene= 2.910263
Spin=Alpha
Occup=0
     1   -2.086766012337e-04
     2   -3.141030586772e-03
     3    7.460617222616e-03
     4    4.499623878228e-02
     5    1.532999308921e-02
     6   -6.288955775096e-02
     7    9.991859353097e-02
     8    3.305443867875e-02
     9   -1.434917280670e-01
    10    5.258371908572e-01
    11   -2.268918793788e-02
    12   -7.065356306220e-02
    13   -1.451645159449e-01
    14    1.028741674907e-01
    15   -1.315136151540e-04
    16   -2.306521891978e-03
    17    4.959955199908e-03
    18   -4.588597719904e-02
    19   -1.583617196735e-02
    20   -6.246536565352e-02
    21   -1.009043145328e-01
    22   -3.562220980790e-02
    23   -1.414273916575e-01
    24    5.134574621855e-01
    25    2.725104426371e-02
    26    7.028300393744e-02
    27   -1.387776923276e-01
    28    9.574863559952e-02
    29    3.901898776873e-05
    30    1.876932083728e-04
    31   -3.983210864709e-03
    32   -4.610707575383e-02
    33    1.686815036486e-02
    34    6.319061588306e-02
    35   -1.035134330479e-01
    36    3.714745363378e-02
    37    1.378378109035e-01
    38    5.235250946035e-01
    39   -2.143809801462e-02
    40    8.123856197406e-02
    41   -1.482355216269e-01
    42   -1.039686197052e-01
    43    1.100623261335e-04
    44    1.087529199561e-03
    45   -6.838069661699e-03
    46    4.696676768578e-02
    47   -1.615507828280e-02
    48    6.305438841583e-02
    49    1.046737818798e-01
    50   -3.708431566376e-02
    51    1.363367687691e-01
    52    5.132588183097e-01
    53    2.776502794878e-02
    54   -6.624338236789e-02
    55   -1.407698424978e-01
    56   -9.609988974723e-02
Sym=X
Ene= 3.340405
Spin=Alpha
Occup=0
     1   -7.847360966884e-03
     2    4.379918641456e-01
     3   -2.759851425678e+00
     4   -1.605474990811e-02
     5   -1.118371589499e-01
     6    2.911650661094e-02
     7    8.584798781256e-01
     8    1.257523253484e+00
     9    6.606255096237e-01
    10    1.416190845609e-01
    11   -2.276995242653e-01
    12   -4.326357489125e-01
    13    1.253840472637e-01
    14   -5.479238848575e-01
    15    8.279142792803e-03
    16   -4.654476519336e-01
    17    2.955813293269e+00
    18   -1.445343628015e-02
    19   -1.109790742752e-01
    20   -1.718421413315e-02
    21    9.070946690670e-01
    22    1.299273192869e+00
    23   -7.787258113287e-01
    24   -1.144544577577e-01
    25   -2.751369639976e-01
    26   -4.801371353796e-01
    27   -1.197652437013e-01
    28    5.572397362530e-01
    29   -4.848236475026e-03
    30    2.601692260920e-01
    31   -1.645387735927e+00
    32   -5.518083124850e-02
    33   -1.238903783190e-01
    34   -7.222117298638e-03
    35   -2.506932886826e-01
    36    9.666266747347e-01
    37   -4.420688252569e-01
    38    5.759275663843e-02
    39   -2.417533473959e-02
    40    4.010312845195e-01
    41    2.130048611967e-01
    42    2.985612271018e-01
    43    4.263227272286e-03
    44   -2.237291168438e-01
    45    1.446077948668e+00
    46   -5.264537551192e-02
    47   -1.257692496564e-01
    48    1.875918442511e-02
    49   -1.998971900598e-01
    50    9.192880309913e-01
    51    3.355817830507e-01
    52   -7.952448700205e-02
    53    1.741033155307e-02
    54    3.646846056273e-01
    55   -2.156897265261e-01
    56   -2.895377558016e-01
Sym=X
Ene= 3.343416
Spin=Alpha
Occup=0
     1   -2.317471880444e-03
     2    1.164538942742e-01
     3   -7.522807941371e-01
     4   -1.244100208326e-01
     5    4.855955005745e-02
     6    4.703960295238e-02
     7    7.138105510585e-01
     8    2.354513499755e-02
     9    1.979740424896e-02
    10    1.180612457558e-01
    11   -2.261076111608e-01
    12    1.372437549170e-01
    13   -2.073872494210e-01
    14   -2.430636910969e-01
    15    6.276975896464e-03
    16   -3.287064793457e-01
    17    2.104263203075e+00
    18   -1.125635904194e-01
    19    5.908864611617e-02
    20    2.568201696906e-02
    21    1.054948391089e+00
    22    3.634555764831e-01
    23   -7.048017459494e-01
    24   -3.019367366026e-03
    25   -4.960714310880e-01
    26   -1.245996375022e-01
    27    2.067315456161e-01
    28    3.142491207022e-01
    29    6.713782865681e-03
    30   -3.214979630787e-01
    31    2.095896359804e+00
    32   -1.149372580561e-01
    33    2.470729354961e-02
    34    5.790802464917e-02
    35    1.052697528729e+00
    36   -6.911822318863e-01
    37    3.603523479409e-01
    38   -1.767713909559e-01
    39    3.107682479949e-01
    40   -1.182687815137e-01
    41    1.065167613250e-01
    42   -4.897766558815e-01
    43   -1.068130665985e-02
    44    5.336625678413e-01
    45   -3.447845231101e+00
    46   -1.031009006958e-01
    47    1.398322667682e-02
    48    1.510701231467e-02
    49    1.393799816423e+00
    50   -1.037813079559e+00
    51   -1.038648856418e+00
    52    6.322795362200e-02
    53    5.732341800163e-01
    54   -3.800019997008e-01
    55   -1.049170597217e-01
    56    5.684175970832e-01
Sym=X
Ene= 3.346337
Spin=Alpha
Occup=0
     1   -9.303927953750e-03
     2    4.207592775936e-01
     3   -2.787301473405e+00
     4   -2.369412396404e-02
     5    2.755110148370e-02
     6   -1.176462638724e-01
     7    8.776913165539e-01
     8    6.875689027880e-01
     9    1.241300336631e+00
    10   -1.504096707116e-01
    11   -5.435403958277e-01
    12   -4.502007916306e-01
    13   -5.594387627972e-02
    14   -2.459875269985e-01
    15   -5.291309150153e-03
    16    2.450374581087e-01
    17   -1.619573201579e+00
    18   -5.425311043540e-02
    19   -5.745358657342e-03
    20   -1.238378068201e-01
    21   -2.372705861909e-01
    22   -4.332527997300e-01
    23    9.562605613057e-01
    24   -2.147097290098e-01
    25    2.999684136726e-01
    26    4.053690741648e-01
    27    5.886527116005e-02
    28   -1.176811670058e-02
    29    1.017470561508e-02
    30   -4.570604916062e-01
    31    3.004123156406e+00
    32   -2.204917160078e-02
    33   -1.727171268702e-02
    34   -1.153844521615e-01
    35    9.331868904572e-01
    36   -7.763411655741e-01
    37    1.303855201001e+00
    38    1.513423152924e-01
    39    5.583740382605e-01
    40   -4.820625665818e-01
    41    4.603058608423e-02
    42   -2.773967326573e-01
    43    4.564284471925e-03
    44   -2.178982558745e-01
    45    1.406171827992e+00
    46   -5.360990660181e-02
    47    1.668317594867e-02
    48   -1.251841960937e-01
    49   -1.839936322950e-01
    50    3.326272367770e-01
    51    8.994211094585e-01
    52    2.189656269375e-01
    53   -2.851421560289e-01
    54    3.624784072359e-01
    55   -4.582547000773e-02
    56    2.569139403949e-02
Sym=X
Ene= 3.545503
Spin=Alpha
Occup=0
     1    1.776856022861e-03
     2    1.584132244712e-03
     3    4.183773818479e-02
     4   -2.979398121493e-02
     5   -7.764431927808e-03
     6    4.942303560827e-02
     7    2.996743047534e-01
     8    9.498154328709e-02
     9   -4.380639952240e-01
    10    4.357295264847e-01
    11    1.460397258790e-01
    12    4.005905400965e-01
    13   -1.221062992994e-01
    14   -5.193291861071e-01
    15   -1.407487053008e-03
    16   -1.419473380642e-03
    17   -3.187508836887e-02
    18   -2.151617600923e-02
    19   -1.775991280668e-02
    20   -4.775529026177e-02
    21    2.179715220446e-01
    22    1.853032779640e-01
    23    4.285580976123e-01
    24   -4.411633249733e-01
    25    2.390860694036e-01
    26    2.845896194078e-01
    27    1.806015953687e-02
    28    5.217638669003e-01
    29   -3.741671575206e-04
    30   -2.697273233559e-04
    31   -9.595179543191e-03
    32    2.806383486063e-02
    33    1.315206106631e-02
    34   -1.262191452642e-02
    35   -2.401961060881e-01
    36   -1.131959258720e-01
    37    1.194226777405e-01
    38    1.297762983092e-01
    39   -1.400630411283e-01
    40   -2.884242272502e-01
    41   -2.094391616769e-01
    42    1.488124102085e-01
    43    9.619850461128e-06
    44    1.067203564577e-04
    45   -3.687294132695e-04
    46    3.650501329325e-02
    47    2.286051137619e-02
    48    1.360352345851e-02
    49   -3.210635954289e-01
    50   -2.014170509496e-01
    51   -1.199443742678e-01
    52   -1.205796934541e-01
    53   -2.425356554848e-01
    54   -3.939351327971e-01
    55    3.119416638901e-01
    56   -1.514765368403e-01
Sym=X
Ene= 3.551709
Spin=Alpha
Occup=0
     1   -5.407195873190e-04
     2   -5.674242689568e-04
     3   -1.231477562464e-02
     4   -2.120684501389e-03
     5    8.471312006855e-03
     6   -9.966817835878e-03
     7    7.758374472746e-03
     8   -7.895184527250e-02
     9    8.398818973513e-02
    10   -8.015028185352e-02
    11   -1.039068295316e-01
    12   -1.601793636620e-03
    13   -5.597866605958e-02
    14    9.736630526130e-02
    15    2.523733317454e-04
    16    7.970972270969e-04
    17    2.421565875700e-03
    18   -3.534328415681e-02
    19    4.270306799783e-02
    20    8.749550674032e-03
    21    3.050691679397e-01
    22   -3.819952367286e-01
    23   -7.842392631381e-02
    24    8.189493123934e-02
    25   -4.731282759453e-01
    26    3.761458056699e-01
    27    4.113369016808e-01
    28   -9.726403629941e-02
    29    2.657392377435e-04
    30    8.904749936252e-04
    31    2.499119632309e-03
    32    3.341546522492e-02
    33   -9.719582833020e-03
    34   -4.459080390022e-02
    35   -3.028904793582e-01
    36    8.468192460395e-02
    37    3.890357975792e-01
    38    4.012782662521e-01
    39    1.041336901475e-01
    40   -3.748794625117e-01
    41   -1.312928999781e-01
    42    4.793838001033e-01
    43    2.259208367402e-05
    44   -1.119886461846e-03
    45    7.394003493830e-03
    46    4.094562016180e-04
    47   -4.363243699625e-02
    48    4.362631347244e-02
    49   -4.515020172930e-03
    50    3.865921650091e-01
    51   -3.844099270409e-01
    52   -4.008422069183e-01
    53    4.740343127794e-01
    54   -3.257674247778e-03
    55   -2.275352220742e-01
    56   -4.784658046981e-01
Sym=X
Ene= 3.557709
Spin=Alpha
Occup=0
     1    1.787885884569e-03
     2    2.128039268412e-03
     3    3.950348578473e-02
     4    4.203534201773e-02
     5   -4.723487554935e-02
     6    1.718090146057e-02
     7   -3.341366658804e-01
     8    4.170411205741e-01
     9   -1.240019491895e-01
    10    1.154755269353e-01
    11    5.360906194876e-01
    12   -3.836501737847e-01
    13    4.520179542045e-01
    14   -1.259880340320e-01
    15   -3.633583484887e-04
    16   -1.363783622039e-04
    17   -9.440366015998e-03
    18   -2.495136865105e-02
    19    1.533018178350e-02
    20   -1.186965490302e-02
    21    2.273317462867e-01
    22   -1.275866034578e-01
    23    1.073872669984e-01
    24   -1.115971256937e-01
    25   -1.561493126052e-01
    26    2.887435983447e-01
    27    2.100254475556e-01
    28    1.319516656299e-01
    29   -1.415764239530e-03
    30   -2.093662185429e-03
    31   -2.909304896749e-02
    32    3.139519943437e-02
    33    4.909429379414e-02
    34    2.610975290567e-02
    35   -2.480712507204e-01
    36   -4.273716593141e-01
    37   -2.014204870199e-01
    38   -1.964497130285e-01
    39   -5.337434134912e-01
    40   -2.927869057136e-01
    41   -3.991565705381e-01
    42   -2.406649455757e-01
    43   -1.358381220740e-05
    44    9.647742357275e-05
    45   -9.673921978890e-04
    46   -3.542093153047e-02
    47   -1.425444458821e-02
    48   -2.105083713785e-02
    49    3.141971066099e-01
    50    1.266327240999e-01
    51    1.866543067289e-01
    52    1.919913155033e-01
    53    1.535674013294e-01
    54    3.901738955372e-01
    55   -2.667728347778e-01
    56    2.368892615886e-01
[5D]

======= END OF MOLDEN-FORMATTED INPUT FILE =======


        *************************************************************
        *                                                           *
        *  Thank you very much for using Q-Chem.  Have a nice day.  *
        *                                                           *
        *************************************************************


0 sent ACK to 0 
now end server 0 ... 
