[Molden Format]
[Title]
 Molden file created by orca_2mkl for BaseName=./N4

[Atoms] AU
N    1   7          0.9826575896         1.0015548510         0.9637603283 
N    2   7         -0.9826575896        -0.9826575896         0.9826575896 
N    3   7         -0.9826575896         0.9826575896        -0.9826575896 
N    4   7          0.9826575896        -0.9826575896        -0.9826575896 
[GTO]
  1 0
s   5 1.0 
     1712.8415853000        -1.0337585405
      257.6481267700        -1.8620740805
       58.4582458530        -2.7290401880
       16.1983679050        -2.6956734544
        5.0052600809        -1.0640914367
s   1 1.0 
        0.5873185657         0.4781513534
s   1 1.0 
        0.1876459225         0.2031956662
p   3 1.0 
       13.5714702330        -2.1850243557
        2.9257372874        -1.7466999024
        0.7992775075        -0.8114650516
p   1 1.0 
        0.2195434803         0.2142105067
d   1 1.0 
        1.0000000000         2.8508218814

  2 0
s   5 1.0 
     1712.8415853000        -1.0337585405
      257.6481267700        -1.8620740805
       58.4582458530        -2.7290401880
       16.1983679050        -2.6956734544
        5.0052600809        -1.0640914367
s   1 1.0 
        0.5873185657         0.4781513534
s   1 1.0 
        0.1876459225         0.2031956662
p   3 1.0 
       13.5714702330        -2.1850243557
        2.9257372874        -1.7466999024
        0.7992775075        -0.8114650516
p   1 1.0 
        0.2195434803         0.2142105067
d   1 1.0 
        1.0000000000         2.8508218814

  3 0
s   5 1.0 
     1712.8415853000        -1.0337585405
      257.6481267700        -1.8620740805
       58.4582458530        -2.7290401880
       16.1983679050        -2.6956734544
        5.0052600809        -1.0640914367
s   1 1.0 
        0.5873185657         0.4781513534
s   1 1.0 
        0.1876459225         0.2031956662
p   3 1.0 
       13.5714702330        -2.1850243557
        2.9257372874        -1.7466999024
        0.7992775075        -0.8114650516
p   1 1.0 
        0.2195434803         0.2142105067
d   1 1.0 
        1.0000000000         2.8508218814

  4 0
s   5 1.0 
     1712.8415853000        -1.0337585405
      257.6481267700        -1.8620740805
       58.4582458530        -2.7290401880
       16.1983679050        -2.6956734544
        5.0052600809        -1.0640914367
s   1 1.0 
        0.5873185657         0.4781513534
s   1 1.0 
        0.1876459225         0.2031956662
p   3 1.0 
       13.5714702330        -2.1850243557
        2.9257372874        -1.7466999024
        0.7992775075        -0.8114650516
p   1 1.0 
        0.2195434803         0.2142105067
d   1 1.0 
        1.0000000000         2.8508218814

[5D]
[9G]
[MO]
 Sym=     1a
 Ene= -1.57527328360462E+01
 Spin= Alpha
 Occup= 2.000000
  1       0.502169995964
  2      -0.017093496042
  3       0.004755250129
  4      -0.001183030846
  5      -0.001196041456
  6      -0.001170891751
  7      -0.001375545709
  8      -0.001377191359
  9      -0.001392328823
 10      -0.000017635889
 11       0.000418320733
 12       0.000423241486
 13      -0.000008561221
 14       0.000432845722
 15       0.506779632859
 16      -0.017207417693
 17       0.004732737289
 18       0.001186316104
 19       0.001191949638
 20      -0.001197700374
 21       0.001338481336
 22       0.001338519233
 23      -0.001388787277
 24      -0.000005394055
 25      -0.000427267818
 26      -0.000418148300
 27      -0.000000655696
 28       0.000421915209
 29       0.482561740941
 30      -0.016488461596
 31       0.004410506607
 32       0.001145672410
 33      -0.001137497964
 34       0.001138987057
 35       0.001349060974
 36      -0.001332274468
 37       0.001330652570
 38       0.000003415265
 39       0.000443555366
 40      -0.000437201095
 41       0.000001498356
 42      -0.000422834470
 43       0.490734632770
 44      -0.016718921023
 45       0.004472102246
 46      -0.001158494352
 47       0.001163462043
 48       0.001151176794
 49      -0.001337752477
 50       0.001330210450
 51       0.001311753517
 52       0.000003006503
 53      -0.000440313586
 54       0.000433452622
 55      -0.000002100748
 56      -0.000416843424
 Sym=     1a
 Ene= -1.57520706446167E+01
 Spin= Alpha
 Occup= 2.000000
  1       0.596715307723
  2      -0.019611854792
  3       0.015013674633
  4      -0.001358395370
  5      -0.001374988843
  6      -0.001236947537
  7      -0.003567147087
  8      -0.003758583570
  9      -0.001597647051
 10       0.000364506175
 11      -0.000038202826
 12      -0.000071625400
 13       0.000024410884
 14      -0.000605256077
 15      -0.777901325793
 16       0.025518351100
 17      -0.019642936768
 18      -0.001729016944
 19      -0.001743611175
 20       0.001693911289
 21      -0.004178815731
 22      -0.004357505325
 23       0.003141668838
 24      -0.000199319119
 25      -0.000209615264
 26      -0.000251509935
 27      -0.000026002523
 28       0.000526357939
 29       0.128923487350
 30      -0.004250290077
 31       0.003208907556
 32       0.000168676411
 33      -0.000386420516
 34       0.000298179462
 35      -0.001082504315
 36      -0.002143767035
 37       0.000884374525
 38      -0.000070053787
 39       0.000378335429
 40       0.000540662900
 41       0.000526427479
 42      -0.000014790077
 43       0.065934238123
 44      -0.002163545224
 45       0.001557383620
 46      -0.000241962828
 47       0.000029970194
 48       0.000170498451
 49      -0.001740625650
 50      -0.001486138105
 51       0.000660533540
 52      -0.000102294246
 53       0.000524592687
 54       0.000378144760
 55      -0.000522731439
 56      -0.000071603242
 Sym=     1a
 Ene= -1.57520461493206E+01
 Spin= Alpha
 Occup= 2.000000
  1       0.490882230077
  2      -0.016109164660
  3       0.012472215657
  4      -0.001001555648
  5      -0.001126958722
  6      -0.001163133256
  7      -0.000985071966
  8      -0.002859888279
  9      -0.003527456300
 10      -0.000307026601
 11      -0.000123921923
 12      -0.000635131414
 13       0.000297409180
 14       0.000098160036
 15       0.306032441734
 16      -0.010019583792
 17       0.007743710455
 18       0.000696793286
 19       0.000575347815
 20      -0.000776293451
 21       0.001748311103
 22      -0.000117944653
 23      -0.002903780202
 24      -0.000391024734
 25       0.000592391063
 26       0.000073471452
 27      -0.000300904205
 28       0.000249699217
 29      -0.014027892509
 30       0.000456557731
 31      -0.000218787250
 32       0.000007638248
 33      -0.000046085366
 34      -0.000161981664
 35       0.000664224446
 36      -0.001127041280
 37      -0.001890194598
 38       0.000526775647
 39       0.000336412357
 40      -0.000200108528
 41       0.000076090384
 42       0.000530943622
 43      -0.804572994183
 44       0.026425605003
 45      -0.020201775433
 46       0.001759950797
 47      -0.001793521505
 48      -0.001832618156
 49       0.003459871208
 50      -0.003916487578
 51      -0.004606532958
 52       0.000176660586
 53      -0.000365230788
 54       0.000487264114
 55      -0.000071785307
 56      -0.000155878747
 Sym=     1a
 Ene= -1.57520270173470E+01
 Spin= Alpha
 Occup= 2.000000
  1       0.364799207332
  2      -0.011957954725
  3       0.009312283770
  4      -0.000894965800
  5      -0.000704325264
  6      -0.000867896443
  7      -0.002847825431
  8      -0.000138387428
  9      -0.002498052649
 10      -0.000198826565
 11      -0.000667200195
 12       0.000109941669
 13      -0.000452962795
 14       0.000023956861
 15       0.163377322450
 16      -0.005347262584
 17       0.004241665413
 18       0.000242248892
 19       0.000421918292
 20      -0.000430516499
 21      -0.001021746086
 22       0.001686028915
 23      -0.001816963557
 24      -0.000278688808
 25      -0.000161941471
 26       0.000596508113
 27       0.000432831357
 28       0.000198081460
 29      -0.855913087227
 30       0.028147453958
 31      -0.021560124425
 32      -0.001953329277
 33       0.001885618083
 34      -0.001926905000
 35      -0.004542068148
 36       0.004029241499
 37      -0.004201361607
 38      -0.000008542259
 39       0.000437579710
 40      -0.000277744800
 41       0.000091303146
 42      -0.000367917934
 43       0.299636990629
 44      -0.009837506349
 45       0.007733956747
 46      -0.000740928700
 47       0.000710820512
 48       0.000551133339
 49      -0.002629074922
 50       0.002161036864
 51      -0.000205278114
 52       0.000484538758
 53      -0.000043643166
 54       0.000176699828
 55      -0.000079031409
 56       0.000626492531
 Sym=     1a
 Ene= -1.66780476357456E+00
 Spin= Alpha
 Occup= 2.000000
  1       0.130043126386
  2       0.262056366909
  3       0.070310285809
  4       0.078555720984
  5       0.078620724330
  6       0.078461229197
  7      -0.021833509248
  8      -0.022034616703
  9      -0.021635816529
 10      -0.000183654349
 11       0.013337432991
 12       0.013386507542
 13      -0.000104448621
 14       0.013439863369
 15       0.129180216924
 16       0.260399778419
 17       0.069257776283
 18      -0.077406163522
 19      -0.077906428058
 20       0.078820333089
 21       0.021443273978
 22       0.021443284135
 23      -0.021655882202
 24       0.000114492747
 25      -0.013385520662
 26      -0.013423744339
 27      -0.000102247420
 28       0.013219811389
 29       0.130905743644
 30       0.263708895145
 31       0.071429481580
 32      -0.079690970682
 33       0.078243544707
 34      -0.079172969507
 35       0.022253684400
 36      -0.022024923709
 37       0.022248094993
 38      -0.000033499910
 39       0.013558875039
 40      -0.013350316559
 41       0.000153361280
 42      -0.013387920792
 43       0.130031963378
 44       0.262033613081
 45       0.070330965990
 46       0.078540493372
 47      -0.079041545441
 48      -0.078023555690
 49      -0.021840601866
 50       0.021845460548
 51       0.021839935028
 52      -0.000180106579
 53      -0.013350335873
 54       0.013386347440
 55      -0.000103820564
 56      -0.013426192184
 Sym=     1a
 Ene= -1.04590856677667E+00
 Spin= Alpha
 Occup= 2.000000
  1       0.159545247128
  2       0.338203397320
  3       0.307851611365
  4       0.029924524771
  5      -0.102396985803
  6       0.094465043029
  7      -0.042950001485
  8      -0.008859070228
  9      -0.059967074610
 10       0.012958770646
 11       0.014161560806
 12       0.000035525699
 13       0.011435867506
 14      -0.007102099875
 15      -0.171029096536
 16      -0.362431488894
 17      -0.329760932396
 18       0.034341229312
 19      -0.095788586684
 20      -0.082498869453
 21      -0.046534462914
 22      -0.012898933446
 23       0.059909957985
 24      -0.011380259524
 25       0.013531965377
 26      -0.000550970463
 27      -0.011250228125
 28       0.005738515590
 29       0.093530678407
 30       0.198282072045
 31       0.180943410789
 32      -0.107924467243
 33      -0.139422581188
 34      -0.041943370993
 35       0.049080224727
 36       0.015628683675
 37       0.031687977158
 38       0.005592217974
 39       0.016640157037
 40       0.010141449491
 41       0.021341626996
 42       0.003135940717
 43      -0.083400188628
 44      -0.176694183735
 45      -0.161629863752
 46      -0.100693416227
 47      -0.142961825642
 48       0.053129622095
 49       0.045006250312
 50       0.018489967428
 51      -0.032499313281
 52      -0.007458380450
 53       0.017011368403
 54       0.009228341778
 55      -0.021216363706
 56      -0.004078040796
 Sym=     1a
 Ene= -1.04246955788576E+00
 Spin= Alpha
 Occup= 2.000000
  1       0.043940762184
  2       0.093151747684
  3       0.085548739320
  4      -0.156330660134
  5       0.080797432654
  6       0.080152982910
  7       0.031303938499
  8      -0.030879922111
  9      -0.031157257731
 10       0.011710159780
 11      -0.007815665004
 12       0.017620187843
 13      -0.020555060074
 14      -0.008020214445
 15      -0.121144758046
 16      -0.256825278065
 17      -0.234947666327
 18      -0.115325342826
 19       0.120427959305
 20      -0.007435959650
 21       0.003504746617
 22      -0.058412978382
 23       0.029117193623
 24      -0.000408919996
 25      -0.010913967420
 26       0.014591331463
 27       0.020344402805
 28      -0.001251711620
 29      -0.120553915771
 30      -0.255550775827
 31      -0.235527237739
 32      -0.115739668726
 33      -0.006471146476
 34       0.122150527279
 35       0.003218980066
 36       0.028621301057
 37      -0.059511911750
 38      -0.017663095777
 39      -0.001426953433
 40       0.014506351169
 41       0.010668481172
 42      -0.011069702892
 43       0.197759564801
 44       0.419228317251
 45       0.384935833696
 46      -0.074707732113
 47      -0.048811311898
 48      -0.046700599092
 49      -0.024592539279
 50       0.057312970978
 51       0.056323079799
 52       0.005827040473
 53       0.001774668867
 54       0.011474786418
 55      -0.010763638075
 56       0.001686241805
 Sym=     1a
 Ene= -1.03908109386319E+00
 Spin= Alpha
 Occup= 2.000000
  1      -0.159063286793
  2      -0.337219847102
  3      -0.312272334683
  4      -0.024808493237
  5      -0.091892377397
  6       0.105159322237
  7       0.042736978054
  8       0.060360232824
  9       0.007783444755
 10       0.016394277330
 11       0.007489143820
 12       0.000427622251
 13       0.005882287618
 14      -0.013732285626
 15      -0.094604776130
 16      -0.200547301109
 17      -0.185234232749
 18       0.106231568234
 19       0.040491143376
 20       0.137429820471
 21      -0.049366469624
 22      -0.032095118867
 23      -0.015141119073
 24       0.021186735893
 25      -0.002511020659
 26      -0.009704646590
 27      -0.005567543541
 28      -0.016462142300
 29       0.170920497406
 30       0.362471197125
 31       0.335815028237
 32      -0.032754012559
 33       0.081612274792
 34       0.099414751009
 35       0.047635922530
 36      -0.059778583396
 37       0.012219521717
 38      -0.015616354341
 39      -0.006050068369
 40       0.000769503881
 41      -0.004163056017
 42      -0.013436183153
 43       0.081384869694
 44       0.172632007164
 45       0.159064448050
 46       0.101084538206
 47      -0.051664637199
 48       0.146218251677
 49      -0.044966798102
 50       0.031936831359
 51      -0.020760955871
 52      -0.022095160728
 53       0.004373651579
 54      -0.009679136939
 55       0.004243905720
 56      -0.017031451950
 Sym=     1a
 Ene= -6.94095048054253E-01
 Spin= Alpha
 Occup= 2.000000
  1       0.064209787387
  2       0.128755462617
  3       0.184245912780
  4      -0.167069096106
  5      -0.169439817100
  6      -0.164708132210
  7       0.080981362486
  8       0.082462906326
  9       0.079514883356
 10       0.000469047260
 11      -0.020372838603
 12      -0.020774430418
 13       0.000274709807
 14      -0.021180200708
 15       0.064196802708
 16       0.128784663453
 17       0.184643063984
 18       0.165320509901
 19       0.166201440460
 20      -0.166144117940
 21      -0.080035341424
 22      -0.080272670713
 23       0.080102735033
 24      -0.000087302905
 25       0.020609379553
 26       0.020724277044
 27       0.000096161813
 28      -0.020732055899
 29       0.064207646127
 30       0.128689957355
 31       0.183767713537
 32       0.168841975978
 33      -0.167970904746
 34       0.167979931760
 35      -0.081970092528
 36       0.081870251341
 37      -0.081739534388
 38       0.000033193907
 39      -0.020834306360
 40       0.020834627296
 41      -0.000132005451
 42       0.020949386168
 43       0.064207835484
 44       0.128747750074
 45       0.184236177660
 46      -0.167045356878
 47       0.167945511881
 48       0.166202535545
 49       0.080971738667
 50      -0.081225891159
 51      -0.080757953970
 52       0.000163792953
 53       0.020663350317
 54      -0.020781549652
 55       0.000098121672
 56       0.020892959465
 Sym=     1a
 Ene= -5.78090769835566E-01
 Spin= Alpha
 Occup= 2.000000
  1      -0.072107844320
  2      -0.167317843617
  3      -0.125733747002
  4       0.041593874091
  5       0.031753817679
  6       0.295837516179
  7      -0.048417556613
  8      -0.043300074743
  9      -0.185623149423
 10       0.023969701890
 11       0.008171836770
 12       0.007409764652
 13       0.000381559001
 14      -0.004081660223
 15       0.118339844794
 16       0.274893352269
 17       0.206073258951
 18       0.165634525446
 19       0.169543483293
 20      -0.260847709014
 21      -0.131515454338
 22      -0.134612106365
 23       0.183445606243
 24      -0.008398338619
 25       0.007156294114
 26       0.007713100375
 27      -0.000058022299
 28      -0.003296332788
 29      -0.023755284596
 30      -0.055040649256
 31      -0.041600657853
 32      -0.245990629334
 33      -0.110654578506
 34       0.015882335416
 35       0.141628788570
 36       0.051201477446
 37      -0.000412880634
 38      -0.007847181016
 39       0.008018162548
 40       0.008323056019
 41       0.028293221337
 42      -0.003472347646
 43      -0.021959672729
 44      -0.050875770446
 45      -0.038781531598
 46      -0.105536436781
 47      -0.234710636427
 48       0.022415036512
 49       0.048892945344
 50       0.133680775113
 51      -0.004499881947
 52      -0.008067617614
 53       0.007705386140
 54       0.006956029420
 55      -0.027903416623
 56      -0.003594366290
 Sym=     1a
 Ene= -5.76975563967880E-01
 Spin= Alpha
 Occup= 2.000000
  1       0.070517801850
  2       0.163819886182
  3       0.122157741460
  4      -0.294425831267
  5      -0.028706301652
  6      -0.033260655797
  7       0.184943676718
  8       0.041392181421
  9       0.043430728895
 10       0.012516338110
 11      -0.007891609002
 12       0.004335291386
 13      -0.020861662233
 14      -0.007090820557
 15       0.026101036033
 16       0.060631911831
 17       0.045542296457
 18      -0.013049892394
 19       0.236857369953
 20       0.095580728382
 21      -0.002583768420
 22      -0.136374477705
 23      -0.042047280600
 24       0.019976440152
 25      -0.006974240348
 26       0.003864425776
 27       0.020450695422
 28      -0.006983893847
 29       0.021887122938
 30       0.050847169269
 31       0.037560705911
 32      -0.022593307711
 33       0.113374290447
 34       0.250187911184
 35       0.004249785206
 36      -0.053515436442
 37      -0.144412030927
 38      -0.028768482847
 39      -0.008418115097
 40       0.003670029798
 41      -0.006697832846
 42      -0.008727885141
 43      -0.118496491863
 44      -0.275309710426
 45      -0.205156748706
 46       0.256072748070
 47      -0.181906337119
 48      -0.160625785775
 49      -0.181595188949
 50       0.142525151106
 51       0.129119669581
 52      -0.004827808670
 53      -0.006377270734
 54       0.003480245081
 55       0.006343470437
 56      -0.008045998975
 Sym=     1a
 Ene= -5.75796351126824E-01
 Spin= Alpha
 Occup= 2.000000
  1       0.070407642447
  2       0.163793634006
  3       0.120954601828
  4      -0.025366793844
  5      -0.292837690160
  6      -0.032870909579
  7       0.039756455319
  8       0.184685421726
  9       0.043585765808
 10       0.011994046375
 11       0.004325622114
 12      -0.007496691366
 13       0.021238530543
 14      -0.006882864708
 15       0.023708578166
 16       0.055224288895
 17       0.040600915106
 18       0.240739268028
 19      -0.018719450700
 20       0.101605825179
 21      -0.138866575193
 22       0.000956852877
 23      -0.046312093153
 24       0.019927371573
 25       0.004000500013
 26      -0.007470638044
 27      -0.020864402939
 28      -0.007455137975
 29      -0.118226972623
 30      -0.274744031216
 31      -0.203382663458
 32      -0.174858003425
 33       0.254478822842
 34      -0.170183808903
 35       0.138882954094
 36      -0.181457510792
 37       0.135429314016
 38      -0.003973123807
 39       0.003433922730
 40      -0.006809109741
 41      -0.006790382612
 42      -0.007356110978
 43       0.024623799753
 44       0.057362651843
 45       0.041794041206
 46       0.106901198790
 47      -0.014631132447
 48       0.250246726985
 49      -0.048958525475
 50      -0.001543905449
 51      -0.145514164692
 52      -0.028286606696
 53       0.003896829877
 54      -0.008371261687
 55       0.007085865952
 56      -0.008072919756
 Sym=     1a
 Ene= -5.49742085451304E-01
 Spin= Alpha
 Occup= 2.000000
  1      -0.002080030169
  2      -0.005464193432
  3      -0.001287272539
  4      -0.185941724186
  5       0.258255830521
  6      -0.066013884180
  7       0.122171213598
  8      -0.172421317768
  9       0.042640582845
 10      -0.002423887036
 11      -0.025994432658
 12       0.019170297715
 13      -0.009076715786
 14       0.006965678852
 15       0.001232808941
 16       0.002726259222
 17       0.002021346435
 18       0.196686020532
 19      -0.263610002824
 20      -0.074892762536
 21      -0.130274396388
 22       0.173749416670
 23       0.049691706666
 24      -0.003043011579
 25       0.026507764261
 26      -0.019317788604
 27      -0.010131337438
 28       0.007108020653
 29      -0.001172109307
 30      -0.003225375745
 31      -0.000333354206
 32       0.186927811185
 33       0.256051620871
 34       0.062041923930
 35      -0.123384732351
 36      -0.170947391154
 37      -0.040581674873
 38      -0.001656276763
 39      -0.025866168014
 40      -0.019452533645
 41      -0.008662703203
 42      -0.007145633962
 43       0.002242146589
 44       0.005199586067
 45       0.003120224381
 46      -0.197593336504
 47      -0.259800827319
 48       0.076268723862
 49       0.131508690501
 50       0.171208416218
 51      -0.051199522740
 52      -0.002939472909
 53       0.026513941929
 54       0.019321081226
 55      -0.010070469403
 56      -0.006797661275
 Sym=     1a
 Ene= -5.44430884212197E-01
 Spin= Alpha
 Occup= 2.000000
  1       0.001754288301
  2       0.004712717765
  3       0.000708978806
  4      -0.194071050947
  5      -0.072820368897
  6       0.262529004720
  7       0.130939550505
  8       0.049811276450
  9      -0.174592564274
 10       0.009462718244
 11       0.007115391370
 12       0.019262660357
 13      -0.002499032687
 14      -0.026450186738
 15       0.001003407641
 16       0.002834654885
 17       0.000081866846
 18       0.193880745408
 19       0.076296249083
 20       0.264218792224
 21      -0.130208322330
 22      -0.051608809012
 23      -0.175696339769
 24       0.010157792024
 25      -0.006884915043
 26      -0.018977468510
 27      -0.002140063143
 28      -0.026572837705
 29      -0.001135009538
 30      -0.002489196505
 31      -0.001884028189
 32       0.184987367855
 33      -0.065360019186
 34      -0.257618309059
 35      -0.123849579567
 36       0.043667230019
 37       0.173212946160
 38       0.008413177972
 39       0.006955306849
 40      -0.019127868338
 41      -0.002530441215
 42       0.026040659262
 43      -0.001815931817
 44      -0.004206736307
 45      -0.002411969505
 46      -0.184744565227
 47       0.064070546951
 48      -0.260469037108
 49       0.123137189413
 50      -0.042291509122
 51       0.175094612311
 52       0.008470754008
 53      -0.007242134879
 54       0.019091517734
 55      -0.002521343345
 56       0.026026864535
 Sym=     1a
 Ene= 1.84002553139585E-01
 Spin= Alpha
 Occup= 0.000000
  1      -0.003962285440
  2      -0.009408625359
  3      -0.029963159439
  4      -0.257664859950
  5      -0.105494156623
  6       0.343298635105
  7       0.376707298648
  8       0.157205225616
  9      -0.490919884817
 10       0.000399311313
 11      -0.003230132499
 12      -0.007585879896
 13      -0.000080483055
 14       0.009750382482
 15       0.003308200926
 16       0.007773852610
 17       0.025876525641
 18      -0.180543074205
 19      -0.185196498070
 20      -0.341976076221
 21       0.265668662364
 22       0.271420972712
 23       0.490115219071
 24      -0.000033019082
 25      -0.005334924655
 26      -0.005428388363
 27      -0.000040284758
 28      -0.010068413052
 29       0.000709997552
 30       0.001698762439
 31       0.005191265194
 32       0.168121960659
 33       0.096553829048
 34      -0.076900146439
 35      -0.235580548235
 36      -0.134312089808
 37       0.111366550774
 38      -0.000097321511
 39       0.002073177503
 40       0.003923694949
 41      -0.000491043891
 42      -0.001994092256
 43      -0.000067147348
 44      -0.000109117135
 45      -0.001112935025
 46       0.245692289394
 47       0.174338030766
 48       0.071908885639
 49      -0.346899192827
 50      -0.245919315525
 51      -0.102517475923
 52      -0.000211289826
 53       0.004203411641
 54       0.006216083356
 55       0.000603451683
 56       0.002026661588
 Sym=     1a
 Ene= 1.86039994342477E-01
 Spin= Alpha
 Occup= 0.000000
  1       0.000734124442
  2       0.001740398951
  3       0.005603285598
  4      -0.006899146790
  5       0.046095776154
  6      -0.035507851930
  7       0.007637866909
  8      -0.066646987967
  9       0.050968355225
 10      -0.000231208305
 11       0.001068556490
 12       0.000340114581
 13       0.000288513851
 14      -0.001214445364
 15      -0.000524084483
 16      -0.001099609233
 17      -0.005679557802
 18      -0.262771427226
 19       0.302263128661
 20       0.035539154504
 21       0.376195249829
 22      -0.436090739353
 23      -0.050873227006
 24       0.000011517845
 25       0.008340607178
 26      -0.007134760140
 27       0.000166858593
 28       0.001091661239
 29      -0.000532327460
 30      -0.001120155180
 31      -0.005815200686
 32       0.265771616231
 33      -0.046135478791
 34      -0.307813765198
 35      -0.385965658239
 36       0.066938348897
 37       0.443602771194
 38       0.000487830571
 39      -0.001196669331
 40       0.007712830028
 41      -0.000193050948
 42      -0.008800433092
 43       0.000322139379
 44       0.000478828155
 45       0.005891343904
 46       0.010547661162
 47      -0.301115651155
 48       0.308873910913
 49      -0.017724406773
 50       0.434952382586
 51      -0.444653284432
 52      -0.000260197280
 53      -0.008397921428
 54       0.000433071895
 55      -0.000304320778
 56       0.008760177793
 Sym=     1a
 Ene= 1.87874358413563E-01
 Spin= Alpha
 Occup= 0.000000
  1      -0.003893419864
  2      -0.009217562831
  3      -0.029957724410
  4       0.251497439712
  5      -0.348284863021
  6       0.077191040908
  7      -0.357328534050
  8       0.506497030450
  9      -0.106194798393
 10       0.000057095222
 11      -0.009690102511
 12       0.006761112465
 13       0.000362804548
 14       0.001912098599
 15       0.000841958354
 16       0.002056720414
 17       0.005733663127
 18      -0.177610138487
 19       0.086520938440
 20      -0.085431923390
 21       0.262661441412
 22      -0.124146934420
 23       0.127769483957
 24       0.000267561355
 25       0.002578282980
 26      -0.005761786452
 27       0.000164163581
 28      -0.003005830769
 29       0.003085929003
 30       0.007223813882
 31       0.024841556998
 32       0.165615686916
 33       0.348769731264
 34       0.160831084619
 35      -0.233303636748
 36      -0.505461656316
 37      -0.227427722674
 38      -0.000302976420
 39       0.009334929243
 40       0.004317365731
 41      -0.000635153266
 42       0.004383157864
 43      -0.000023920798
 44      -0.000021156803
 45      -0.000611607667
 46      -0.263087847126
 47      -0.091970916903
 48      -0.170861255386
 49       0.386540065184
 50       0.134180877511
 51       0.251548222427
 52      -0.000013119677
 53      -0.002579362518
 54      -0.008061509554
 55       0.000092162504
 56      -0.005476787999
 Sym=     1a
 Ene= 2.82567020529294E-01
 Spin= Alpha
 Occup= 0.000000
  1       0.114634212688
  2       0.271708242403
  3       1.108288357821
  4       0.188432840971
  5       0.230282423554
  6       0.118729190283
  7      -0.537598894493
  8      -0.723587469332
  9      -0.202239141442
 10       0.008264775799
 11       0.021723804290
 12       0.011828059454
 13       0.003306522105
 14      -0.008066096152
 15      -0.145706207925
 16      -0.344242446644
 17      -1.414639558096
 18       0.222962151889
 19       0.267832508025
 20      -0.199945386028
 21      -0.613152858095
 22      -0.802787688175
 23       0.468418647496
 24      -0.005293852418
 25       0.020454825202
 26       0.010272787670
 27      -0.003102996210
 28      -0.000454616100
 29       0.048922494662
 30       0.116257552608
 31       0.471633069122
 32       0.013972142513
 33       0.168641969850
 34      -0.074294356074
 35      -0.167076290627
 36      -0.589569851338
 37       0.203374150290
 38       0.000007503946
 39       0.024342591765
 40       0.017171923126
 41       0.012326227029
 42      -0.003322086984
 43      -0.017097602445
 44      -0.040472642407
 45      -0.165594535991
 46       0.047334773822
 47       0.130838434103
 48      -0.003223001799
 49      -0.236844356729
 50      -0.508763417142
 51       0.052564239548
 52      -0.003723620393
 53       0.025202756303
 54       0.015976011253
 55      -0.012201373688
 56      -0.005476651758
 Sym=     1a
 Ene= 2.85925229274012E-01
 Spin= Alpha
 Occup= 0.000000
  1      -0.034489524246
  2      -0.081400354350
  3      -0.340010723073
  4       0.044351679847
  5      -0.105429093215
  6      -0.101241184919
  7      -0.284149127753
  8       0.369027678783
  9       0.364145103213
 10       0.005941238547
 11      -0.014114748722
 12       0.021815162449
 13      -0.011001051024
 14      -0.015050522391
 15      -0.067494371026
 16      -0.158878770915
 17      -0.667422923374
 18       0.161605422856
 19       0.013004254147
 20      -0.145313056589
 21      -0.537080068523
 22       0.111477008805
 23       0.458154708484
 24       0.004494460535
 25      -0.017706947000
 26       0.018222589272
 27       0.010895049424
 28      -0.013798097524
 29      -0.063828476034