[Molden Format]
[Atoms] (AU)
N    1    7         0.982657589101       0.996830535097       0.968484643104
N    2    7        -0.982657589101      -0.987381904433       0.987381904433
N    3    7        -0.982657589101       0.977933273768      -0.977933273768
N    4    7         0.982657589101      -0.987381904433      -0.977933273768
[GTO]
  1 0
 s    5  1.00
     1712.8415853000        -1.0337580570
      257.6481267700        -1.8620740219
       58.4582458500        -2.7290401781
       16.1983679100        -2.6956734544
        5.0052600800        -1.0640914404
 s    1  1.00
        0.5873185700         0.4781513560
 s    1  1.00
        0.1876459200         0.2031956642
 p    3  1.00
       13.5714702300        -2.1850244156
        2.9257372900        -1.7466999024
        0.7992775100        -0.8114650542
 p    1  1.00
        0.2195434800         0.2142105064
 d    1  1.00
        1.0000000000         1.6459227806

  2 0
 s    5  1.00
     1712.8415853000        -1.0337580570
      257.6481267700        -1.8620740219
       58.4582458500        -2.7290401781
       16.1983679100        -2.6956734544
        5.0052600800        -1.0640914404
 s    1  1.00
        0.5873185700         0.4781513560
 s    1  1.00
        0.1876459200         0.2031956642
 p    3  1.00
       13.5714702300        -2.1850244156
        2.9257372900        -1.7466999024
        0.7992775100        -0.8114650542
 p    1  1.00
        0.2195434800         0.2142105064
 d    1  1.00
        1.0000000000         1.6459227806

  3 0
 s    5  1.00
     1712.8415853000        -1.0337580570
      257.6481267700        -1.8620740219
       58.4582458500        -2.7290401781
       16.1983679100        -2.6956734544
        5.0052600800        -1.0640914404
 s    1  1.00
        0.5873185700         0.4781513560
 s    1  1.00
        0.1876459200         0.2031956642
 p    3  1.00
       13.5714702300        -2.1850244156
        2.9257372900        -1.7466999024
        0.7992775100        -0.8114650542
 p    1  1.00
        0.2195434800         0.2142105064
 d    1  1.00
        1.0000000000         1.6459227806

  4 0
 s    5  1.00
     1712.8415853000        -1.0337580570
      257.6481267700        -1.8620740219
       58.4582458500        -2.7290401781
       16.1983679100        -2.6956734544
        5.0052600800        -1.0640914404
 s    1  1.00
        0.5873185700         0.4781513560
 s    1  1.00
        0.1876459200         0.2031956642
 p    3  1.00
       13.5714702300        -2.1850244156
        2.9257372900        -1.7466999024
        0.7992775100        -0.8114650542
 p    1  1.00
        0.2195434800         0.2142105064
 d    1  1.00
        1.0000000000         1.6459227806

[5d]
[9g]

[MO]
 Sym= A
 Ene=       -15.7527331675
 Spin= Alpha
 Occup=  2.0000
  1       0.501620692930
  2      -0.017075464567
  3       0.004741336601
  4      -0.001181797324
  5      -0.001194830927
  6      -0.001169657334
  7      -0.001372703240
  8      -0.001374656367
  9      -0.001389471486
 10      -0.000017589051
 11       0.000418639801
 12       0.000423454277
 13      -0.000008501003
 14       0.000433035222
 15       0.506907017202
 16      -0.017211606010
 17       0.004735903267
 18       0.001186640309
 19       0.001192253006
 20      -0.001197909340
 21       0.001339868044
 22       0.001339591100
 23      -0.001388252895
 24      -0.000005067987
 25      -0.000427336308
 26      -0.000418309412
 27      -0.000000706119
 28       0.000421544881
 29       0.482850023574
 30      -0.016497933315
 31       0.004417734416
 32       0.001146364201
 33      -0.001138066248
 34       0.001139679563
 35       0.001351008981
 36      -0.001332608808
 37       0.001332624158
 38       0.000003256613
 39       0.000443117855
 40      -0.000437230361
 41       0.000001231994
 42      -0.000422876280
 43       0.490881281037
 44      -0.016723737627
 45       0.004475740644
 46      -0.001158744370
 47       0.001163817177
 48       0.001151554051
 49      -0.001337297867
 50       0.001331350165
 51       0.001313231736
 52       0.000002794028
 53      -0.000440368365
 54       0.000433062784
 55      -0.000001842037
 56      -0.000417003505
 Sym= A
 Ene=       -15.7520708137
 Spin= Alpha
 Occup=  2.0000
  1       0.589477121994
  2      -0.019374625244
  3       0.014826501814
  4      -0.001342884570
  5      -0.001359089487
  6      -0.001219784690
  7      -0.003541446754
  8      -0.003726260411
  9      -0.001545643825
 10       0.000368936137
 11      -0.000033149480
 12      -0.000064967600
 13       0.000023479400
 14      -0.000606263979
 15      -0.781915714764
 16       0.025649532182
 17      -0.019748161124
 18      -0.001737465437
 19      -0.001751650022
 20       0.001704234098
 21      -0.004192071735
 22      -0.004364225096
 23       0.003182786785
 24      -0.000193486856
 25      -0.000215504044
 26      -0.000255607718
 27      -0.000024929331
 28       0.000522656690
 29       0.133758438458
 30      -0.004409472868
 31       0.003326251557
 32       0.000179295416
 33      -0.000396235996
 34       0.000310535285
 35      -0.001065396376
 36      -0.002152772322
 37       0.000927966394
 38      -0.000075865888
 39       0.000372428007
 40       0.000544144624
 41       0.000525060667
 42      -0.000018923750
 43       0.073495069654
 44      -0.002412124149
 45       0.001743134984
 46      -0.000258076857
 47       0.000046634031
 48       0.000188422779
 49      -0.001765678430
 50      -0.001453296636
 51       0.000713339714
 52      -0.000106801989
 53       0.000528680394
 54       0.000371927361
 55      -0.000521477613
 56      -0.000073318752
 Sym= A
 Ene=       -15.7520464443
 Spin= Alpha
 Occup=  2.0000
  1       0.494236888466
  2      -0.016219929669
  3       0.012552531362
  4      -0.001008620236
  5      -0.001135969337
  6      -0.001169081805
  7      -0.000998551472
  8      -0.002900452551
  9      -0.003522096834
 10      -0.000301114839
 11      -0.000117986185
 12      -0.000636727328
 13       0.000301851743
 14       0.000091375587
 15       0.296044955739
 16      -0.009692276889
 17       0.007487530140
 18       0.000675736882
 19       0.000552475803
 20      -0.000753873861
 21       0.001711787245
 22      -0.000181396822
 23      -0.002852287689
 24      -0.000390606820
 25       0.000591356250
 26       0.000064987145
 27      -0.000305180381
 28       0.000253818764
 29      -0.004476276283
 30       0.000142105530
 31       0.000018585414
 32       0.000028057127
 33      -0.000068281631
 34      -0.000140357892
 35       0.000694820144
 36      -0.001188574344
 37      -0.001840704293
 38       0.000526024799
 39       0.000336666258
 40      -0.000191674218
 41       0.000081069057
 42       0.000533988530
 43      -0.806363991861
 44       0.026484195574
 45      -0.020252606097
 46       0.001763549365
 47      -0.001799183538
 48      -0.001835240886
 49       0.003464151097
 50      -0.003952135082
 51      -0.004596352483
 52       0.000171010325
 53      -0.000359132242
 54       0.000489918632
 55      -0.000076837472
 56      -0.000162623442
 Sym= A
 Ene=       -15.7520275851
 Spin= Alpha
 Occup=  2.0000
  1       0.372707644467
  2      -0.012217886901
  3       0.009509266238
  4      -0.000911912077
  5      -0.000722533586
  6      -0.000885678284
  7      -0.002876435426
  8      -0.000185479154
  9      -0.002539578753
 10      -0.000199698892
 11      -0.000668345197
 12       0.000103858029
 13      -0.000450065130
 14       0.000021784405
 15       0.162217602615
 16      -0.005309268876
 17       0.004209337613
 18       0.000239854643
 19       0.000418317446
 20      -0.000429038300
 21      -0.001027451080
 22       0.001661990603
 23      -0.001827342250
 24      -0.000283352409
 25      -0.000157759898
 26       0.000595637446
 27       0.000429890578
 28       0.000203365044
 29      -0.855111451481
 30       0.028120741636
 31      -0.021541948672
 32      -0.001951789634
 33       0.001882563925
 34      -0.001926239892
 35      -0.004540955503
 36       0.004006583622
 37      -0.004213290658
 38      -0.000004056060
 39       0.000442863684
 40      -0.000276846527
 41       0.000094825018
 42      -0.000363244037
 43       0.292743897906
 44      -0.009611333151
 45       0.007557240927
 46      -0.000726404079
 47       0.000694851854
 48       0.000535562171
 49      -0.002606869586
 50       0.002117327606
 51      -0.000243706940
 52       0.000485593437
 53      -0.000044369508
 54       0.000183385870
 55      -0.000082495014
 56       0.000624469863
 Sym= A
 Ene=        -1.6678050153
 Spin= Alpha
 Occup=  2.0000
  1       0.130043059403
  2       0.262056207454
  3       0.070310185116
  4       0.078555705554
  5       0.078620713620
  6       0.078461213139
  7      -0.021833500420
  8      -0.022034609333
  9      -0.021635807066
 10      -0.000183652701
 11       0.013337432432
 12       0.013386508242
 13      -0.000104447144
 14       0.013439864717
 15       0.129180230264
 16       0.260399818452
 17       0.069257772938
 18      -0.077406159675
 19      -0.077906440478
 20       0.078820391693
 21       0.021443280898
 22       0.021443295022
 23      -0.021655902918
 24       0.000114500643
 25      -0.013385527237
 26      -0.013423751597
 27      -0.000102250255
 28       0.013219810518
 29       0.130905774648
 30       0.263708974917
 31       0.071429510306
 32      -0.079690965035
 33       0.078243584719
 34      -0.079172960786
 35       0.022253694682
 36      -0.022024944051
 37       0.022248103966
 38      -0.000033505055
 39       0.013558875041
 40      -0.013350324039
 41       0.000153355778
 42      -0.013387926852
 43       0.130031977552
 44       0.262033653211
 45       0.070330968368
 46       0.078540547828
 47      -0.079041545932
 48      -0.078023537557
 49      -0.021840622758
 50       0.021845469784
 51       0.021839937472
 52      -0.000180114546
 53      -0.013350342934
 54       0.013386345357
 55      -0.000103815611
 56      -0.013426199118
 Sym= A
 Ene=        -1.0459087253
 Spin= Alpha
 Occup=  2.0000
  1       0.159543381649
  2       0.338199408518
  3       0.307847976259
  4       0.029925568617
  5      -0.102398341676
  6       0.094465459256
  7      -0.042949897168
  8      -0.008858350277
  9      -0.059966795800
 10       0.012958832893
 11       0.014161696337
 12       0.000035409606
 13       0.011436077803
 14      -0.007102153420
 15      -0.171029030809
 16      -0.362431373698
 17      -0.329760800096
 18       0.034343071468
 19      -0.095789195552
 20      -0.082497613811
 21      -0.046534940116
 22      -0.012898765551
 23       0.059909634278
 24      -0.011380075156
 25       0.013532031338
 26      -0.000551175426
 27      -0.011250438010
 28       0.005738385547
 29       0.093533233446
 30       0.198287515050
 31       0.180948314144
 32      -0.107923975530
 33      -0.139421848160
 34      -0.041943419802
 35       0.049080656603
 36       0.015627938394
 37       0.031688543255
 38       0.005592212119
 39       0.016640117717
 40       0.010141342573
 41       0.021341521742
 42       0.003135890052
 43      -0.083400919422
 44      -0.176695740789
 45      -0.161631293029
 46      -0.100691961839
 47      -0.142962026620
 48       0.053131335269
 49       0.045006041978
 50       0.018489859334
 51      -0.032499933995
 52      -0.007458626326
 53       0.017011400683
 54       0.009228177152
 55      -0.021216259952
 56      -0.004078223885
 Sym= A
 Ene=        -1.0424697755
 Spin= Alpha
 Occup=  2.0000
  1       0.043941946109
  2       0.093154249712
  3       0.085551018827
  4      -0.156330332522
  5       0.080796631524
  6       0.080153731835
  7       0.031303560865
  8      -0.030879980896
  9      -0.031157712955
 10       0.011710263204
 11      -0.007815545223
 12       0.017620186124
 13      -0.020554969216
 14      -0.008020267791
 15      -0.121146081085
 16      -0.256828099164
 17      -0.234950209203
 18      -0.115325137459
 19       0.120427272500
 20      -0.007436614562
 21       0.003504403976
 22      -0.058413101454
 23       0.029117684753
 24      -0.000409005292
 25      -0.010913871268
 26       0.014591336088
 27       0.020344320647
 28      -0.001251665510
 29      -0.120553165420
 30      -0.255549206928
 31      -0.235525751312
 32      -0.115740596534
 33      -0.006472222412
 34       0.122150247356
 35       0.003219412128
 36       0.028621418772
 37      -0.059511661460
 38      -0.017663059116
 39      -0.001426818298
 40       0.014506437883
 41       0.010668652681
 42      -0.011069693232
 43       0.197758956541
 44       0.419227054826
 45       0.384934576045
 46      -0.074708424704
 47      -0.048812443089
 48      -0.046700146318
 49      -0.024592242486
 50       0.057313115181
 51       0.056322809061
 52       0.005826976027
 53       0.001774793918
 54       0.011474852087
 55      -0.010763803189
 56       0.001686197639
 Sym= A
 Ene=        -1.0390812702
 Spin= Alpha
 Occup=  2.0000
  1       0.159064755996
  2       0.337222921045
  3       0.312275204458
  4       0.024808853486
  5       0.091891493742
  6      -0.105158229421
  7      -0.042737441744
  8      -0.060360369397
  9      -0.007784121101
 10      -0.016394153645
 11      -0.007488999019
 12      -0.000427609217
 13      -0.005882183072
 14       0.013732226243
 15       0.094603182902
 16       0.200543936617
 17       0.185231079187
 18      -0.106231333469
 19      -0.040492060444
 20      -0.137430561992
 21       0.049366046361
 22       0.032094992934
 23       0.015141658944
 24      -0.021186855068
 25       0.002511136241
 26       0.009704637643
 27       0.005567440721
 28       0.016462206237
 29      -0.170919637505
 30      -0.362469402127
 31      -0.335813379964
 32       0.032752917244
 33      -0.081613652568
 34      -0.099415250587
 35      -0.047635435215
 36       0.059778773395
 37      -0.012219188726
 38       0.015616414694
 39       0.006050238551
 40      -0.000769416370
 41       0.004163270473
 42       0.013436209279
 43      -0.081385586131
 44      -0.172633535117
 45      -0.159065895796
 46      -0.101085541933
 47       0.051663282374
 48      -0.146217875001
 49       0.044967245273
 50      -0.031936655871
 51       0.020760687840
 52       0.022095100002
 53      -0.004373502625
 54       0.009679236995
 55      -0.004244116662
 56       0.017031415942
 Sym= A
 Ene=        -0.6940951956
 Spin= Alpha
 Occup=  2.0000
  1       0.064209716674
  2       0.128755296035
  3       0.184245837599
  4      -0.167068802997
  5      -0.169439567773
  6      -0.164707757556
  7       0.080981156286
  8       0.082462715745
  9       0.079514653143
 10       0.000469049928
 11      -0.020372824630
 12      -0.020774417526
 13       0.000274707195
 14      -0.021180194596
 15       0.064196874212
 16       0.128784850957
 17       0.184643111476
 18       0.165320508043
 19       0.166201503383
 20      -0.166144504407
 21      -0.080035373571
 22      -0.080272742964
 23       0.080102949455
 24      -0.000087345282
 25       0.020609388993
 26       0.020724290307
 27       0.000096166328
 28      -0.020732046151
 29       0.064207662571
 30       0.128690034285
 31       0.183767675068
 32       0.168841874607
 33      -0.167971254044
 34       0.167979847802
 35      -0.081970098266
 36       0.081870440481
 37      -0.081739537440
 38       0.000033213733
 39      -0.020834288993
 40       0.020834642225
 41      -0.000131965980
 42       0.020949400067
 43       0.064207871106
 44       0.128747860079
 45       0.184236180888
 46      -0.167045719830
 47       0.167945451260
 48       0.166202428273
 49       0.080971931113
 50      -0.081225906065
 51      -0.080757923563
 52       0.000163817826
 53       0.020663360457
 54      -0.020781533968
 55       0.000098083074
 56       0.020892972980
 Sym= A
 Ene=        -0.5780909141
 Spin= Alpha
 Occup=  2.0000
  1       0.072103108040
  2       0.167306780531
  3       0.125725652806
  4      -0.041580144252
  5      -0.031746299009
  6      -0.295834683462
  7       0.048408439834
  8       0.043294296964
  9       0.185619759728
 10      -0.023970532520
 11      -0.008171581270
 12      -0.007409791533
 13      -0.000381071840
 14       0.004082073831
 15      -0.118341559130
 16      -0.274897397444
 17      -0.206075863668
 18      -0.165638942710
 19      -0.169553826942
 20       0.260841276577
 21       0.131518533171
 22       0.134618355897
 23      -0.183442887131
 24       0.008396984242
 25      -0.007156052388
 26      -0.007713123211
 27       0.000057539575
 28       0.003296755460
 29       0.023756943524
 30       0.055044487254
 31       0.041603498072
 32       0.245996152457
 33       0.110643339054
 34      -0.015890433748
 35      -0.141632437348
 36      -0.051194740306
 37       0.000416694720
 38       0.007848622659
 39      -0.008017851003
 40      -0.008323084382
 41      -0.028292765595
 42       0.003473004072
 43       0.021964640104
 44       0.050887286565
 45       0.038790137742
 46       0.105521601999
 47       0.234719735662
 48      -0.022413589098
 49      -0.048883045944
 50      -0.133687537104
 51       0.004497373396
 52       0.008068496139
 53      -0.007705170942
 54      -0.006955987512
 55       0.027902962317
 56       0.003595006198
 Sym= A
 Ene=        -0.5769757200
 Spin= Alpha
 Occup=  2.0000
  1       0.070518822791
  2       0.163822200383
  3       0.122159663671
  4      -0.294426348962
  5      -0.028697957132
  6      -0.033273672243
  7       0.184944176146
  8       0.041388018183
  9       0.043438136033
 10       0.012514797792
 11      -0.007892136243
 12       0.004335139461
 13      -0.020862399366
 14      -0.007090375813
 15       0.026094734009
 16       0.060617261627
 17       0.045531283052
 18      -0.013066375520
 19       0.236850437993
 20       0.095588764956
 21      -0.002572586734
 22      -0.136368426207
 23      -0.042053803961
 24       0.019976127946
 25      -0.006974713292
 26       0.003864402515
 27       0.020451437326
 28      -0.006983457140
 29       0.021892328182
 30       0.050859253618
 31       0.037569686669
 32      -0.022576254340
 33       0.113370395735
 34       0.250193553204
 35       0.004238635597
 36      -0.053511388854
 37      -0.144416990550
 38      -0.028767995037
 39      -0.008418594774
 40       0.003669958298
 41      -0.006698898365
 42      -0.008727489664
 43      -0.118496316021
 44      -0.275309361936
 45      -0.205156117971
 46       0.256074348866
 47      -0.181894634798
 48      -0.160635054021
 49      -0.181596106465
 50       0.142518871562
 51       0.129124710271
 52      -0.004826467297
 53      -0.006377762763
 54       0.003480147956
 55       0.006344539206
 56      -0.008045573884
 Sym= A
 Ene=        -0.5757965438
 Spin= Alpha
 Occup=  2.0000
  1       0.070411787426
  2       0.163803226142
  3       0.120961830067
  4      -0.025378336788
  5      -0.292838787175
  6      -0.032879097243
  7       0.039764223209
  8       0.184687421069
  9       0.043591710928
 10       0.011993927936
 11       0.004325079611
 12      -0.007496680447
 13       0.021237779509
 14      -0.006882999053
 15       0.023706842321
 16       0.055220257273
 17       0.040597874481
 18       0.240735615990
 19      -0.018715760719
 20       0.101614491905
 21      -0.138864005086
 22       0.000955595471
 23      -0.046317328748
 24       0.019928234802
 25       0.004000190309
 26      -0.007470705352
 27      -0.020863721823
 28      -0.007455280084
 29      -0.118225672867
 30      -0.274741073001
 31      -0.203380210484
 32      -0.174852704426
 33       0.254485802944
 34      -0.170175074202
 35       0.138879623777
 36      -0.181460955520
 37       0.135424111959
 38      -0.003973950452
 39       0.003433368057
 40      -0.006809193807
 41      -0.006791274006
 42      -0.007356353836
 43       0.024620234566
 44       0.057354366196
 45       0.041787910872
 46       0.106911894868
 47      -0.014632820587
 48       0.250241132801
 49      -0.048965556565
 50      -0.001541559761
 51      -0.145509857275
 52      -0.028286603739
 53       0.003896530114
 54      -0.008371264835
 55       0.007086686414
 56      -0.008073137583
 Sym= A
 Ene=        -0.5497423410
 Spin= Alpha
 Occup=  2.0000
  1       0.002080092679
  2       0.005464349779
  3       0.001287239761
  4       0.185942011231
  5      -0.258256568212
  6       0.066013725464
  7      -0.122171297659
  8       0.172421785165
  9      -0.042640405800
 10       0.002423909710
 11       0.025994454734
 12      -0.019170325989
 13       0.009076818825
 14      -0.006965680810
 15      -0.001232768477
 16      -0.002726163913
 17      -0.002021237070
 18      -0.196685413504
 19       0.263609651134
 20       0.074892861565
 21       0.130274033293
 22      -0.173749167294
 23      -0.049691725773
 24       0.003043044498
 25      -0.026507756906
 26       0.019317773333
 27       0.010131248828
 28      -0.007108029237
 29       0.001171815122
 30       0.003224703362
 31       0.000332786637
 32      -0.186928387883
 33      -0.256051146025
 34      -0.062042680676
 35       0.123385160076
 36       0.170946999005
 37       0.040582219681
 38       0.001656303803
 39       0.025866189139
 40       0.019452513868
 41       0.008662701498
 42       0.007145606218
 43      -0.002241963988
 44      -0.005199161841
 45      -0.003119805134
 46       0.197593439209
 47       0.259800916872
 48      -0.076267799616
 49      -0.131508666535
 50      -0.171208453680
 51       0.051198942031
 52       0.002939386887
 53      -0.026513933715
 54      -0.019321119004
 55       0.010070484713
 56       0.006797644225
 Sym= A
 Ene=        -0.5444310915
 Spin= Alpha
 Occup=  2.0000
  1       0.001754294043
  2       0.004712746769
  3       0.000708869461
  4      -0.194071440920
  5      -0.072820586942
  6       0.262529464003
  7       0.130939784958
  8       0.049811432299
  9      -0.174592758654
 10       0.009462811968
 11       0.007115410902
 12       0.019262685413
 13      -0.002499058057
 14      -0.026450223417
 15       0.001003634096
 16       0.002835196495
 17       0.000082214033
 18       0.193881199586
 19       0.076297057466
 20       0.264218581916
 21      -0.130208678599
 22      -0.051609361297
 23      -0.175696070821
 24       0.010157833518
 25      -0.006884923580
 26      -0.018977451229
 27      -0.002140035284
 28      -0.026572872969
 29      -0.001135066676
 30      -0.002489327027
 31      -0.001884082715
 32       0.184986588878
 33      -0.065359963030
 34      -0.257617972367
 35      -0.123849068490
 36       0.043667172799
 37       0.173212796264
 38       0.008413102193
 39       0.006955318228
 40      -0.019127854455
 41      -0.002530389863
 42       0.026040634112
 43      -0.001816117015
 44      -0.004207171388
 45      -0.002412239514
 46      -0.184744220368
 47       0.064069800635
 48      -0.260469225592
 49       0.123136883773
 50      -0.042290998618
 51       0.175094832707
 52       0.008470711669
 53      -0.007242142967
 54       0.019091532053
 55      -0.002521391207
 56       0.026026836379
 Sym= A
 Ene=         0.1840024911
 Spin= Alpha
 Occup=  0.0000
  1       0.003962282429
  2       0.009408602099
  3       0.029963099474
  4       0.257664050698
  5       0.105494392950
  6      -0.343298200108
  7      -0.376705938754
  8      -0.157205482827
  9       0.490919077312
 10      -0.000399340211
 11       0.003230128919
 12       0.007585821816
 13       0.000080483239
 14      -0.009750327802
 15      -0.003308066041
 16      -0.007773564160
 17      -0.025875026439
 18       0.180548227093
 19       0.185190401425
 20       0.341976044350
 21      -0.265675717566
 22      -0.271411967489
 23      -0.490115415964
 24       0.000033021875
 25       0.005334767494
 26       0.005428536162
 27       0.000040279505
 28       0.010068433112
 29      -0.000710034178
 30      -0.001698839580
 31      -0.005191620002
 32      -0.168127465456
 33      -0.096554192738
 34       0.076905494884
 35       0.235588570744
 36       0.134312674676
 37      -0.111374449012
 38       0.000097325068
 39      -0.002073198610
 40      -0.003923868450
 41       0.000491034958
 42       0.001994249581
 43       0.000067050153
 44       0.000108918029
 45       0.001111856455
 46      -0.245691814441
 47      -0.174332096467
 48      -0.071913785780
 49       0.346898705364
 50       0.245910721658
 51       0.102524210191
 52       0.000211303856
 53      -0.004203262331
 54      -0.006216089171
 55      -0.000603435785
 56      -0.002026800424
 Sym= A
 Ene=         0.1860396972
 Spin= Alpha
 Occup=  0.0000
  1       0.000734197314
  2       0.001740569150
  3       0.005603823174
  4      -0.006894538624
  5       0.046097884219
  6      -0.035514231838
  7       0.007631070373
  8      -0.066650069446
  9       0.050977506621
 10      -0.000231216750
 11       0.001068615341
 12       0.000340254511
 13       0.000288507230
 14      -0.001214626020
 15      -0.000524149449
 16      -0.001099765431
 17      -0.005680063255
 18      -0.262768018404
 19       0.302266527804
 20       0.035545527658
 21       0.376189992572
 22      -0.436095483919
 23      -0.050882339654
 24       0.000011521317
 25       0.008340698606
 26      -0.007134649609
 27       0.000166859629
 28       0.001091848406
 29      -0.000532361779
 30      -0.001120237942
 31      -0.005815497757
 32       0.265768564893
 33      -0.046137494458
 34      -0.307812499808
 35      -0.385961191612
 36       0.066941190282
 37       0.443600654657
 38       0.000487823371
 39      -0.001196719497
 40       0.007712753586
 41      -0.000193039296
 42      -0.008800398523
 43       0.000322165498
 44       0.000478893649
 45       0.005891615802
 46       0.010543313165
 47      -0.301118931542
 48       0.308872683768
 49      -0.017718320844
 50       0.434956851393
 51      -0.444651256866
 52      -0.000260185848
 53      -0.008397995606
 54       0.000432965853
 55      -0.000304329088
 56       0.008760138123
 Sym= A
 Ene=         0.1878741602
 Spin= Alpha
 Occup=  0.0000
  1       0.003893378413
  2       0.009217448995
  3       0.029957324735
  4      -0.251498306221
  5       0.348284304994
  6      -0.077189987332
  7       0.357329666698
  8      -0.506495824153
  9       0.106193283056
 10      -0.000057104219
 11       0.009690045335
 12      -0.006761115292
 13      -0.000362838496
 14      -0.001912059238
 15      -0.000841900068
 16      -0.002056592784
 17      -0.005733048973
 18       0.177609720347
 19      -0.086521953133
 20       0.085430909953
 21      -0.262660790579
 22       0.124148676534
 23      -0.127768034072
 24      -0.000267554376
 25      -0.002578318769
 26       0.005761782287
 27      -0.000164144468
 28       0.003005799976
 29      -0.003086063756
 30      -0.007224102245
 31      -0.024842908596
 32      -0.165615045847
 33      -0.348769731979
 34      -0.160830991978
 35       0.233302391793
 36       0.505461774374
 37       0.227427361272
 38       0.000302967451
 39      -0.009334965668
 40      -0.004317360948
 41       0.000635141531
 42      -0.004383172864
 43       0.000024033499
 44       0.000021394767
 45       0.000612809092
 46       0.263088934294
 47       0.091971358300
 48       0.170861228830
 49      -0.386541653113
 50      -0.134181087441
 51      -0.251548010985
 52       0.000013127293
 53       0.002579371208
 54       0.008061546731
 55      -0.000092145106
 56       0.005476799614
 Sym= A
 Ene=         0.2825668348
 Spin= Alpha
 Occup=  0.0000
  1       0.114632795761
  2       0.271704832341
  3       1.108274442184
  4       0.188431053395
  5       0.230281057573
  6       0.118725820367
  7      -0.537594362850
  8      -0.723583652901
  9      -0.202228939841
 10       0.008264872334
 11       0.021723836657
 12       0.011828066697
 13       0.003306528137
 14      -0.008066392465
 15      -0.145707066808
 16      -0.344244544133
 17      -1.414647509869
 18       0.222963193992
 19       0.267833450746
 20      -0.199947537625
 21      -0.613154290623
 22      -0.802789023531
 23       0.468426262119
 24      -0.005293736088
 25       0.020454763939
 26       0.010272720025
 27      -0.003102997086
 28      -0.000454904938
 29       0.048923664194
 30       0.116260347990
 31       0.471644370049
 32       0.013970330431
 33       0.168642835640
 34      -0.074297306217
 35      -0.167072066872
 36      -0.589571261906
 37       0.203383440315
 38       0.000007384902
 39       0.024342518178
 40       0.017171921836
 41       0.012326203852
 42      -0.003322402253
 43      -0.017096521311
 44      -0.040470110176
 45      -0.165583905939
 46       0.047335872839
 47       0.130837016271
 48      -0.003225601088
 49      -0.236846169376
 50      -0.508759907941
 51       0.052572931248
 52      -0.003723742651
 53       0.025202763672
 54       0.015975939844
 55      -0.012201352593
 56      -0.005476967093
 Sym= A
 Ene=         0.2859250015
 Spin= Alpha
 Occup=  0.0000
  1       0.034489274391
  2       0.081399754953
  3       0.340008099702
  4      -0.044352583395
  5       0.105429786771
  6       0.101240218993
  7       0.284151002522
  8      -0.369030457421
  9      -0.364140649516
 10      -0.005941134713
 11       0.014114948024
 12      -0.021815179258
 13       0.011001109462
 14       0.015050311409
 15       0.067493218830
 16       0.158876094563
 17       0.667411214134
 18      -0.161604309883
 19      -0.013002285621
 20       0.145310729510
 21       0.537077679452
 22      -0.111482948090
 23      -0.458147479256
 24      -0.004494404477
 25       0.017707090613
 26      -0.018222671222
 27      -0.010895117198
 28       0.013797907699
 29       0.063829879322
 30       0.151138608640
 31       0.626445780358
 32      -0.156233238640
 33       0.132803684488