[Molden Format]
[Atoms] AU
   N     1    7      0.98265751     0.99683046     0.96848457
   N     2    7     -0.98265751    -0.98738183     0.98738183
   N     3    7     -0.98265751     0.97793320    -0.97793320
   N     4    7      0.98265751    -0.98738183    -0.97793320
[GTO]
    1  0
  s      8  0
 90726.88921000     0.00003926
 13590.52880100     0.00030513
  3092.98837810     0.00160006
   875.99876362     0.00669829
   285.74469982     0.02369008
   103.11913417     0.07145541
    40.12855678     0.17632775
    16.52809570     0.32677593
  s      2  0
    69.39096098     0.08005209
    20.42820060     0.78268064
  s      1  0
     7.12925880     1.00000000
  s      1  0
     3.13243049     1.00000000
  s      1  0
     0.98755779     1.00000000
  s      1  0
     0.38765721     1.00000000
  s      1  0
     0.14909883     1.00000000
  p      5  0
   150.05742670    -0.00086216
    35.49159948    -0.00685713
    11.24786422    -0.03179569
     4.09003052    -0.10537397
     1.62205731    -0.24519708
  p      1  0
     0.66442262     1.00000000
  p      1  0
     0.27099770     1.00000000
  p      1  0
     0.10688750     1.00000000
  d      1  0
     2.83700000     1.00000000
  d      1  0
     0.96800000     1.00000000
  d      1  0
     0.33500000     1.00000000
  f      1  0
     2.02700000     1.00000000
  f      1  0
     0.68500000     1.00000000
  g      1  0
     1.42700000     1.00000000

    2  0
  s      8  0
 90726.88921000     0.00003926
 13590.52880100     0.00030513
  3092.98837810     0.00160006
   875.99876362     0.00669829
   285.74469982     0.02369008
   103.11913417     0.07145541
    40.12855678     0.17632775
    16.52809570     0.32677593
  s      2  0
    69.39096098     0.08005209
    20.42820060     0.78268064
  s      1  0
     7.12925880     1.00000000
  s      1  0
     3.13243049     1.00000000
  s      1  0
     0.98755779     1.00000000
  s      1  0
     0.38765721     1.00000000
  s      1  0
     0.14909883     1.00000000
  p      5  0
   150.05742670    -0.00086216
    35.49159948    -0.00685713
    11.24786422    -0.03179569
     4.09003052    -0.10537397
     1.62205731    -0.24519708
  p      1  0
     0.66442262     1.00000000
  p      1  0
     0.27099770     1.00000000
  p      1  0
     0.10688750     1.00000000
  d      1  0
     2.83700000     1.00000000
  d      1  0
     0.96800000     1.00000000
  d      1  0
     0.33500000     1.00000000
  f      1  0
     2.02700000     1.00000000
  f      1  0
     0.68500000     1.00000000
  g      1  0
     1.42700000     1.00000000

    3  0
  s      8  0
 90726.88921000     0.00003926
 13590.52880100     0.00030513
  3092.98837810     0.00160006
   875.99876362     0.00669829
   285.74469982     0.02369008
   103.11913417     0.07145541
    40.12855678     0.17632775
    16.52809570     0.32677593
  s      2  0
    69.39096098     0.08005209
    20.42820060     0.78268064
  s      1  0
     7.12925880     1.00000000
  s      1  0
     3.13243049     1.00000000
  s      1  0
     0.98755779     1.00000000
  s      1  0
     0.38765721     1.00000000
  s      1  0
     0.14909883     1.00000000
  p      5  0
   150.05742670    -0.00086216
    35.49159948    -0.00685713
    11.24786422    -0.03179569
     4.09003052    -0.10537397
     1.62205731    -0.24519708
  p      1  0
     0.66442262     1.00000000
  p      1  0
     0.27099770     1.00000000
  p      1  0
     0.10688750     1.00000000
  d      1  0
     2.83700000     1.00000000
  d      1  0
     0.96800000     1.00000000
  d      1  0
     0.33500000     1.00000000
  f      1  0
     2.02700000     1.00000000
  f      1  0
     0.68500000     1.00000000
  g      1  0
     1.42700000     1.00000000

    4  0
  s      8  0
 90726.88921000     0.00003926
 13590.52880100     0.00030513
  3092.98837810     0.00160006
   875.99876362     0.00669829
   285.74469982     0.02369008
   103.11913417     0.07145541
    40.12855678     0.17632775
    16.52809570     0.32677593
  s      2  0
    69.39096098     0.08005209
    20.42820060     0.78268064
  s      1  0
     7.12925880     1.00000000
  s      1  0
     3.13243049     1.00000000
  s      1  0
     0.98755779     1.00000000
  s      1  0
     0.38765721     1.00000000
  s      1  0
     0.14909883     1.00000000
  p      5  0
   150.05742670    -0.00086216
    35.49159948    -0.00685713
    11.24786422    -0.03179569
     4.09003052    -0.10537397
     1.62205731    -0.24519708
  p      1  0
     0.66442262     1.00000000
  p      1  0
     0.27099770     1.00000000
  p      1  0
     0.10688750     1.00000000
  d      1  0
     2.83700000     1.00000000
  d      1  0
     0.96800000     1.00000000
  d      1  0
     0.33500000     1.00000000
  f      1  0
     2.02700000     1.00000000
  f      1  0
     0.68500000     1.00000000
  g      1  0
     1.42700000     1.00000000

[5D]
[9G]
[MO]
Sym=        a    
Ene=    -15.74888
Spin=       Alpha
Occup=    2.00000
     1    0.279110537437
     2   -0.000209598846
     3    0.185745931989
     4    0.084645987557
     5    0.005612147747
     6   -0.001848919157
     7    0.000904895273
     8    0.001080808889
     9    0.001089737943
    10    0.001072094485
    11    0.000937917530
    12    0.000966620460
    13    0.000913413242
    14   -0.000754184883
    15   -0.000726491830
    16   -0.000769390540
    17    0.000005074453
    18    0.000006708770
    19    0.000004088422
    20   -0.000002463782
    21    0.000041074445
    22    0.000043418963
    23   -0.000001676626
    24    0.000045221348
    25    0.000013503092
    26   -0.000037952532
    27   -0.000054238813
    28    0.000009161979
    29   -0.000067658773
    30    0.000005257407
    31    0.000271107061
    32    0.000253579794
    33    0.000005582549
    34    0.000242447342
    35   -0.000006028869
    36    0.000001401983
    37    0.000002941300
    38   -0.000001674820
    39    0.000016002804
    40   -0.000007147830
    41    0.000006399602
    42    0.000062082431
    43   -0.000044495654
    44   -0.000037836865
    45   -0.000006366227
    46    0.000046384984
    47    0.000040490133
    48   -0.000042255961
    49   -0.000009502040
    50    0.000006684929
    51    0.000005920203
    52    0.000001740479
    53   -0.000014728648
    54    0.000017869020
    55   -0.000015522371
    56   -0.000004764080
    57    0.000000105777
    58    0.265015970080
    59   -0.000195690757
    60    0.176356251030
    61    0.080400040341
    62    0.005210849845
    63   -0.001587817049
    64    0.001038630717
    65   -0.001014890291
    66   -0.001016658776
    67    0.001026099501
    68   -0.000884077077
    69   -0.000876276464
    70    0.000876451424
    71    0.000804222642
    72    0.000845336129
    73   -0.000835189700
    74    0.000004911025
    75    0.000006903877
    76   -0.000005812227
    77   -0.000000168555
    78   -0.000039248725
    79   -0.000037068413
    80    0.000000780145
    81    0.000038078086
    82    0.000005251606
    83    0.000046183479
    84    0.000036259587
    85   -0.000003770091
    86   -0.000048659597
    87   -0.000000190237
    88   -0.000275838493
    89   -0.000298186704
    90   -0.000014564641
    91    0.000281825227
    92   -0.000006976539
    93   -0.000003214609
    94   -0.000003606042
    95   -0.000000409619
    96    0.000016103243
    97    0.000007063395
    98   -0.000006918922
    99    0.000066172346
   100    0.000035636683
   101    0.000043465289
   102    0.000008597434
   103    0.000041529132
   104   -0.000055038353
   105    0.000048504018
   106   -0.000009375927
   107   -0.000005930444
   108   -0.000006446262
   109   -0.000002005408
   110   -0.000017824519
   111   -0.000015970535
   112    0.000017775228
   113   -0.000008112074
   114   -0.000000547678
   115    0.288519870159
   116   -0.000219099575
   117    0.192013804485
   118    0.087480829963
   119    0.005883367548
   120   -0.002030276212
   121    0.000819806424
   122   -0.001128166394
   123    0.001115712857
   124   -0.001125821910
   125   -0.000976084352
   126    0.000986072873
   127   -0.000981103122
   128    0.000722099789
   129   -0.000679764848
   130    0.000691053033
   131   -0.000011110996
   132    0.000012653136
   133   -0.000012405636
   134    0.000000008830
   135    0.000046290460
   136   -0.000047836778
   137   -0.000000807271
   138   -0.000046230797
   139    0.000001652613
   140   -0.000052141082
   141    0.000067674894
   142    0.000007899234
   143    0.000060183481
   144   -0.000007191156
   145    0.000244967205
   146   -0.000222084307
   147    0.000010402162
   148   -0.000238719864
   149    0.000005462590
   150   -0.000002213008
   151    0.000003618583
   152    0.000001339915
   153    0.000016219534
   154    0.000005480640
   155    0.000005190840
   156   -0.000055622651
   157    0.000033171193
   158   -0.000027897084
   159    0.000007201737
   160    0.000050466724
   161   -0.000043964401
   162   -0.000046374488
   163   -0.000006182321
   164    0.000005542600
   165   -0.000005211888
   166    0.000001535015
   167    0.000016603278
   168    0.000015903038
   169    0.000014251436
   170   -0.000006320725
   171    0.000000039108
   172    0.275135009308
   173   -0.000205845886
   174    0.183097191083
   175    0.083448444078
   176    0.005500012737
   177   -0.001775897945
   178    0.000949110903
   179    0.001064275098
   180   -0.001066155581
   181   -0.001062088076
   182    0.000923562687
   183   -0.000915414425
   184   -0.000928276794
   185   -0.000768433048
   186    0.000812280501
   187    0.000739967849
   188    0.000001660073
   189    0.000000352593
   190   -0.000002940237
   191    0.000000921918
   192   -0.000043877054
   193    0.000041567883
   194    0.000000812109
   195   -0.000040091050
   196   -0.000005019205
   197    0.000059752383
   198   -0.000049310319
   199   -0.000003949333
   200    0.000042343156
   201   -0.000021285566
   202   -0.000242865287
   203    0.000266722227
   204   -0.000015265574
   205   -0.000281867991
   206    0.000006505947
   207    0.000003517182
   208   -0.000003996066
   209    0.000000416638
   210    0.000016140398
   211   -0.000005727589
   212   -0.000005569233
   213   -0.000061370052
   214   -0.000025279632
   215    0.000031087083
   216   -0.000010649548
   217    0.000045750327
   218    0.000057037609
   219    0.000052318105
   220   -0.000006447279
   221   -0.000005366314
   222    0.000005244604
   223   -0.000002138805
   224    0.000018792770
   225   -0.000014535503
   226   -0.000016689270
   227   -0.000009117250
   228    0.000000160362
Sym=        a    
Ene=    -15.74797
Spin=       Alpha
Occup=    2.00000
     1   -0.166488082320
     2    0.000153821658
     3   -0.110916798515
     4   -0.050170094146
     5   -0.004703894184
     6    0.003281178398
     7    0.001963335773
     8   -0.000726371135
     9   -0.000684691846
    10   -0.000711740216
    11   -0.001010833860
    12   -0.000430243742
    13   -0.000881284830
    14   -0.001951364390
    15    0.000299114314
    16   -0.001469980804
    17   -0.000225375823
    18   -0.000088631880
    19   -0.000193561386
    20   -0.000020836766
    21   -0.000137413181
    22   -0.000010385286
    23   -0.000065815030
    24   -0.000037575189
    25    0.000083633594
    26    0.000477498477
    27   -0.000078987960
    28    0.000262719848
    29    0.000040248749
    30    0.000212647396
    31    0.001126184318
    32   -0.000162611638
    33    0.000657687425
    34    0.000110259108
    35   -0.000005596244
    36    0.000012880688
    37    0.000002846799
    38    0.000016887980
    39    0.000001149281
    40    0.000004601795
    41    0.000009537327
    42    0.000084398766
    43   -0.000360515388
    44    0.000074039529
    45   -0.000487826449
    46   -0.000044465508
    47   -0.000153690518
    48   -0.000071347284
    49   -0.000041371974
    50    0.000022315785
    51   -0.000003023900
    52    0.000119771740
    53    0.000006261532
    54    0.000068817474
    55    0.000027901251
    56    0.000017763384
    57    0.000007319380
    58   -0.083726066251
    59    0.000076833467
    60   -0.055777963958
    61   -0.025235594477
    62   -0.002330669502
    63    0.001576474560
    64    0.000915681596
    65    0.000324247607
    66    0.000368614294
    67   -0.000366614165
    68    0.000024940852
    69    0.000584707291
    70   -0.000525353280
    71   -0.000886853720
    72    0.001282285199
    73   -0.001045034696
    74   -0.000008424872
    75    0.000130508189
    76   -0.000118740079
    77   -0.000029288100
    78   -0.000016367396
    79    0.000108798257
    80    0.000063888119
    81    0.000003449865
    82    0.000113327108
    83    0.000132581442
    84   -0.000410905217
    85   -0.000251147799
    86   -0.000073943395
    87    0.000286601907
    88    0.000302638811
    89   -0.000958467632
    90   -0.000630032799
    91   -0.000166173595
    92   -0.000001749184
    93   -0.000002706845
    94   -0.000014396040
    95   -0.000018684912
    96    0.000000274840
    97    0.000005321025
    98    0.000009396952
    99    0.000054376316
   100   -0.000058850005
   101    0.000378889017
   102    0.000478375486
   103   -0.000016883488
   104   -0.000002724225
   105   -0.000209307271
   106   -0.000042709520
   107    0.000004928019
   108   -0.000023177006
   109   -0.000119103022
   110    0.000018238477
   111    0.000028477157
   112    0.000063038034
   113    0.000035987466
   114   -0.000005757363
   115    0.464710474419
   116   -0.000435253440
   117    0.309612636153
   118    0.139992361704
   119    0.013283702885
   120   -0.009283068781
   121   -0.005685555522
   122   -0.001998439361
   123    0.001966842074
   124   -0.001983256571
   125   -0.002226685901
   126    0.002117738857
   127   -0.002097516443
   128   -0.003308700297
   129    0.002947472782
   130   -0.002811140440
   131   -0.000502377303
   132    0.000481517143
   133   -0.000471394270
   134   -0.000012272130
   135    0.000177120335
   136   -0.000157082755
   137    0.000010450706
   138   -0.000184515422
   139    0.000048595458
   140   -0.000413129039
   141    0.000331629882
   142   -0.000037521768
   143    0.000449545045
   144    0.000115010053
   145   -0.001066384318
   146    0.000869278573
   147   -0.000099624101
   148    0.001148021897
   149   -0.000020956058
   150    0.000010020475
   151   -0.000009113719
   152    0.000002083499
   153   -0.000005180841
   154   -0.000016738291
   155   -0.000018318699
   156    0.000181253162
   157   -0.000087721920
   158    0.000028352753
   159   -0.000067445368
   160    0.000100360415
   161    0.000179406270
   162    0.000208145431
   163    0.000031711154
   164   -0.000013679578
   165    0.000010785766
   166   -0.000016117853
   167   -0.000054983132
   168   -0.000044219552
   169   -0.000032263298
   170    0.000053374515
   171    0.000000168805
   172   -0.237771327817
   173    0.000220866359
   174   -0.158409579412
   175   -0.071644503974
   176   -0.006702631943
   177    0.004575899254
   178    0.002728338203
   179   -0.001022563499
   180    0.001020180790
   181    0.000981044314
   182   -0.001269022419
   183    0.001203893521
   184    0.000763550967
   185   -0.002180882858
   186    0.001929791802
   187    0.000231095492
   188   -0.000284876786
   189    0.000267328427
   190    0.000157848152
   191    0.000062821849
   192    0.000058682869
   193   -0.000043837276
   194   -0.000007045611
   195    0.000156517171
   196   -0.000245669403
   197   -0.000077598618
   198    0.000012676105
   199    0.000028652370
   200   -0.000501556361
   201   -0.000612680439
   202   -0.000216448204
   203    0.000069942294
   204    0.000072843921
   205   -0.001201799866
   206    0.000012558286
   207   -0.000006455340
   208    0.000007872812
   209   -0.000002178153
   210    0.000002183101
   211   -0.000015284081
   212   -0.000016900484
   213   -0.000034387992
   214    0.000219635197
   215   -0.000270411416
   216    0.000056661189
   217   -0.000053589886
   218    0.000326344582
   219    0.000350916671
   220    0.000053128563
   221    0.000005011830
   222   -0.000008223996
   223    0.000014177611
   224    0.000073948239
   225   -0.000001525044
   226    0.000008895839
   227   -0.000106764595
   228   -0.000000716682
Sym=        a    
Ene=    -15.74796
Spin=       Alpha
Occup=    2.00000
     1    0.445841321031
     2   -0.000416875890
     3    0.297042286580
     4    0.134310752629
     5    0.012680288447
     6   -0.008744984997
     7   -0.005315953662
     8    0.001885256162
     9    0.001914581653
    10    0.001883217596
    11    0.001919065491
    12    0.002145782082
    13    0.002040953048
    14    0.002382007110
    15    0.003221533475
    16    0.002895614241
    17    0.000428591497
    18    0.000487248463
    19    0.000454480980
    20    0.000000290474
    21    0.000142039887
    22    0.000190130202
    23   -0.000026322228
    24    0.000161085568
    25   -0.000003391628
    26   -0.000279442947
    27   -0.000488851889
    28    0.000102811121
    29   -0.000361844762
    30   -0.000016867111
    31   -0.000750458785
    32   -0.001230864079
    33    0.000253371353
    34   -0.000930056354
    35    0.000019859214
    36   -0.000009629939
    37   -0.000013784804
    38    0.000007356208
    39   -0.000005223824
    40    0.000018349294
    41   -0.000011948990
    42   -0.000186413235
    43    0.000038029831
    44    0.000199754318
    45   -0.000185915941
    46    0.000099890870
    47   -0.000169458079
    48    0.000079984882
    49    0.000047109979
    50   -0.000010047882
    51   -0.000018172256
    52    0.000044404503
    53    0.000037722866
    54   -0.000023561127
    55    0.000058654892
    56    0.000029896812
    57    0.000003197388
    58   -0.143029015313
    59    0.000133261090
    60   -0.095291790504
    61   -0.043093997626
    62   -0.004009989748
    63    0.002662872131
    64    0.001574562683
    65    0.000602536884
    66    0.000621830712
    67   -0.000584340429
    68    0.000668451575
    69    0.000894087184
    70   -0.000333916940
    71    0.000995747948
    72    0.001880357626
    73    0.000339021287
    74    0.000150659594
    75    0.000204598346
    76   -0.000060538038
    77    0.000061448918
    78   -0.000007510716
    79    0.000041980364
    80    0.000026505715
    81   -0.000120359071
    82   -0.000239853484
    83    0.000140185412
    84   -0.000074219477
    85   -0.000103991212
    86    0.000413547778
    87   -0.000606232796
    88    0.000301219596
    89   -0.000202726211
    90   -0.000261871112
    91    0.000990686590
    92   -0.000009178174
    93    0.000013032399
    94    0.000008238351
    95   -0.000007394227
    96    0.000002121228
    97    0.000017733717
    98   -0.000011345380
    99    0.000003286606
   100   -0.000354170731
   101   -0.000182418204
   102    0.000189869989
   103   -0.000039089977
   104   -0.000357343709
   105    0.000263718574
   106    0.000062338723
   107    0.000016235470
   108    0.000005388994
   109   -0.000046507039
   110   -0.000065348305
   111    0.000030916950
   112    0.000005826109
   113   -0.000099827627
   114   -0.000004157585
   115   -0.017547864515
   116    0.000015486399
   117   -0.011688484006
   118   -0.005292876553
   119   -0.000497198597
   120    0.000392019100
   121    0.000233210377
   122    0.000086186367
   123   -0.000045616919
   124    0.000095017860
   125    0.000217107075
   126    0.000277493665
   127    0.000335941427
   128    0.000600069034
   129    0.001318224514
   130    0.001056246853
   131    0.000046450815
   132    0.000066891517
   133    0.000077267311
   134   -0.000046889613
   135   -0.000087181417
   136   -0.000020582161
   137   -0.000055034938
   138   -0.000047972977
   139    0.000185635710
   140    0.000370773432
   141    0.000101539741
   142    0.000219078251
   143    0.000220867728
   144    0.000466849825
   145    0.000856691344
   146    0.000243794597
   147    0.000551642118
   148    0.000517256432
   149   -0.000001837984
   150   -0.000013482044
   151    0.000005118273
   152   -0.000014021244
   153   -0.000000619573
   154   -0.000011583120
   155    0.000000038411
   156   -0.000051785296
   157    0.000416028940
   158   -0.000044487368
   159    0.000407596807
   160    0.000002529184
   161    0.000292877588
   162    0.000112463411
   163   -0.000058973652
   164    0.000021907306
   165    0.000001055887
   166    0.000100731113
   167   -0.000038289325
   168    0.000058703327
   169   -0.000018696874
   170    0.000066698361
   171   -0.000004720146
   172   -0.296109371265
   173    0.000275963013
   174   -0.197279674712
   175   -0.089212894315
   176   -0.008387082377
   177    0.005761077411
   178    0.003471466927
   179   -0.001235106367
   180    0.001275491258
   181    0.001260057197
   182   -0.001070433576
   183    0.001544083477
   184    0.001432461974
   185   -0.000756084351
   186    0.002611331262
   187    0.002169505313
   188   -0.000231416114
   189    0.000345473865
   190    0.000321588751
   191   -0.000014740785
   192    0.000066195444
   193   -0.000170818111
   194    0.000055214609
   195    0.000088351561
   196    0.000059208154
   197   -0.000065755181
   198    0.000519594448
   199   -0.000216213844
   200   -0.000160028871
   201    0.000152960742
   202   -0.000200264464
   203    0.001264500719
   204   -0.000545131997
   205   -0.000432261313
   206    0.000012183419
   207    0.000006536268
   208   -0.000015675375
   209    0.000015992565
   210    0.000003101750
   211   -0.000013774649
   212   -0.000001061305
   213   -0.000140125545
   214    0.000027738267
   215    0.000330207180
   216   -0.000404952552
   217   -0.000066895624
   218    0.000104489303
   219   -0.000080692476
   220   -0.000049827429
   221   -0.000001201558
   222    0.000021379023
   223   -0.000099202655
   224    0.000011754898
   225    0.000006757602
   226   -0.000071343824
   227    0.000003131422
   228    0.000005422884
Sym=        a    
Ene=    -15.74793
Spin=       Alpha
Occup=    2.00000
     1   -0.052818095245
     2    0.000050820338
     3   -0.035194695706
     4   -0.015900273493
     5   -0.001521992362
     6    0.001012198466
     7    0.000635687731
     8   -0.000242793920
     9   -0.000231823747
    10   -0.000197135073
    11   -0.000473526667
    12   -0.000313512002
    13    0.000102692343
    14   -0.001314024321
    15   -0.000677675995
    16    0.000962763086
    17   -0.000116505911
    18   -0.000076747623
    19    0.000029898371
    20    0.000066002821
    21    0.000000577985
    22    0.000037443094
    23   -0.000018309240
    24   -0.000094907610
    25   -0.000255504585
    26   -0.000044759125
    27   -0.000204104352
    28    0.000071320038
    29    0.000366928238
    30   -0.000652849980
    31   -0.000080618405
    32   -0.000454511286
    33    0.000182405357
    34    0.000884016697
    35   -0.000005684291
    36   -0.000011899158
    37   -0.000015573168
    38    0.000005928144
    39    0.000001212150
    40   -0.000010494714
    41    0.000014863783
    42   -0.000045932001
    43    0.000246509523
    44    0.000374182887
    45   -0.000143057007
    46   -0.000005628295
    47    0.000281423338
    48   -0.000338255747
    49    0.000076884674
    50   -0.000007270566
    51   -0.000013862695
    52    0.000035797096
    53   -0.000063296314
    54   -0.000005040596
    55    0.000032222948
    56   -0.000101687183
    57   -0.000000201067
    58    0.457696925695
    59   -0.000425931996
    60    0.304937845859
    61    0.137896207563
    62    0.012924834860
    63   -0.008808482890
    64   -0.005288115168
    65   -0.001929947155
    66   -0.001922190013
    67    0.001956913210
    68   -0.002102891775
    69   -0.001943010905
    70    0.002165400511
    71   -0.002965236545
    72   -0.002333328975
    73    0.003153326843
    74   -0.000467599016
    75   -0.000428014993
    76    0.000478988832
    77    0.000016523783
    78   -0.000195104801
    79   -0.000158181682
    80    0.000017316875
    81    0.000147526475
    82   -0.000060833523
    83    0.000503721600
    84    0.000341911945
    85   -0.000069502117
    86   -0.000302194730
    87   -0.000163119300
    88    0.001253173690
    89    0.000879585952
    90   -0.000180288570
    91   -0.000779061688
    92    0.000018837564
    93    0.000016831556
    94    0.000013282667
    95   -0.000005521007
    96   -0.000004982779
    97   -0.000011197411
    98    0.000015093099
    99   -0.000192208574
   100   -0.000249966015
   101   -0.000118975525
   102    0.000141059262
   103    0.000106593116
   104    0.000041485194
   105   -0.000099664595
   106    0.000061335536
   107    0.000021312007
   108    0.000012927986
   109   -0.000035657940
   110    0.000026786165
   111    0.000056684783
   112   -0.000029779095
   113    0.000013021066
   114   -0.000000724464
   115   -0.087610848379
   116    0.000082984758
   117   -0.058374210506
   118   -0.026383021278
   119   -0.002538707675
   120    0.001795042294
   121    0.001130635017
   122    0.000350674343
   123   -0.000378134914
   124    0.000396497953
   125    0.000074743011
   126   -0.000475785945
   127    0.000672069212
   128   -0.000706486532
   129   -0.000885994430
   130    0.001640371388
   131    0.000015014907
   132   -0.000110770073
   133    0.000160317229
   134   -0.000052167067
   135   -0.000017962857
   136    0.000108199327
   137    0.000046076036
   138   -0.000025804332
   139    0.000204481075
   140    0.000008671428
   141   -0.000403157834
   142   -0.000181981801
   143    0.000180029226
   144    0.000519888983
   145    0.000045738259
   146   -0.000969017687
   147   -0.000462438459
   148    0.000392412087
   149    0.000001848612
   150   -0.000009718576
   151    0.000017729232
   152    0.000013292151
   153    0.000001445648
   154    0.000001604110
   155   -0.000009189355
   156   -0.000084637649
   157    0.000118573508
   158   -0.000435374865
   159   -0.000347097417
   160   -0.000020257566
   161    0.000118450304
   162    0.000273520457
   163   -0.000072488734
   164    0.000004644714
   165   -0.000025121142
   166   -0.000086728619
   167   -0.000035648503
   168   -0.000005133619
   169    0.000061134637
   170    0.000067554410
   171    0.000004300719
   172   -0.295414994145
   173    0.000276891467
   174   -0.196823589884
   175   -0.088986398799
   176   -0.008438720285
   177    0.005860251090
   178    0.003595078872
   179   -0.001267030855
   180    0.001238409850
   181    0.001265633146
   182   -0.001481411367
   183    0.001079999908
   184    0.001507073066
   185   -0.002416905384
   186    0.000826844740
   187    0.002513222808
   188   -0.000336605078
   189    0.000240712869
   190    0.000344780189
   191   -0.000028906384
   192    0.000172465386
   193   -0.000081824406
   194   -0.000045477727
   195    0.000075531094
   196    0.000115349558
   197   -0.000525973454
   198    0.000130867361
   199    0.000179457827
   200   -0.000102835109
   201    0.000296332442
   202   -0.001293717984
   203    0.000368645009
   204    0.000460366908
   205   -0.000309210216
   206    0.000012032744
   207    0.000018704311
   208   -0.000009979848
   209   -0.000013395728
   210    0.000003729084
   211   -0.000000717848
   212   -0.000011581575
   213   -0.000148917686
   214   -0.000379616033
   215    0.000059901634
   216    0.000346904145
   217   -0.000067093431
   218   -0.000114829467
   219    0.000039955368
   220   -0.000065557703
   221   -0.000027027257
   222    0.000005706494
   223    0.000086934845
   224    0.000002001852
   225   -0.000070883505
   226   -0.000004579554
   227    0.000019665776
   228   -0.000004363117
Sym=        a    
Ene=     -1.65183
Spin=       Alpha
Occup=    2.00000
     1   -0.052849126435
     2   -0.007525546058
     3   -0.063668608585
     4   -0.036738051600
     5    0.124123989520
     6    0.191363593943
     7    0.034984786112
     8    0.035115673814
     9    0.035073066586
    10    0.035140683794
    11   -0.039504846075
    12   -0.039476601250
    13   -0.039517147307
    14   -0.021338135671
    15   -0.021426985835
    16   -0.021243638246
    17   -0.001191972674
    18   -0.001210533842
    19   -0.001173647218
    20    0.000001279283
    21    0.001285456375
    22    0.001268704833
    23    0.000001701312
    24    0.001252905950
    25   -0.000035591152
    26    0.007371814744
    27    0.007308882097
    28   -0.000016934514
    29    0.007247974072
    30   -0.000110388083
    31    0.007402809032
    32    0.007409701289
    33   -0.000061827471
    34    0.007418629276
    35    0.000248967686
    36   -0.000163689560
    37   -0.000147372521
    38   -0.000012228304
    39   -0.000208206204
    40    0.000172645567
    41   -0.000171550119
    42    0.002215659440
    43   -0.001323108061
    44   -0.001288926879
    45   -0.000001317421
    46   -0.001319624243
    47    0.001706255094
    48   -0.001664296753
    49   -0.000469637728
    50    0.000071692658
    51    0.000060403710
    52    0.000009518005
    53   -0.000193283831
    54    0.000210063508
    55   -0.000198661147
    56   -0.000375080658
    57   -0.000006520242
    58   -0.052492574476
    59   -0.007475347118
    60   -0.063240247174
    61   -0.036489273455
    62    0.123316591596
    63    0.190116809483
    64    0.034601631584
    65   -0.034560395154
    66   -0.034795469511
    67    0.035260769644
    68    0.038909507557
    69    0.039154374125
    70   -0.039681039497
    71    0.020991067108
    72    0.021107789447
    73   -0.021305965280
    74    0.001168496306
    75    0.001171784815
    76   -0.001172452233
    77    0.000023094285
    78   -0.001269117880