[Molden Format]
[Atoms] AU
   N     1    7      0.98265751     0.99683046     0.96848457
   N     2    7     -0.98265751    -0.98738183     0.98738183
   N     3    7     -0.98265751     0.97793320    -0.97793320
   N     4    7      0.98265751    -0.98738183    -0.97793320
[GTO]
    1  0
  s      8  0
 90726.88921000     0.26446150
 13590.52880100     0.49493731
  3092.98837810     0.85516994
   875.99876362     1.38987366
   285.74469982     2.12169845
   103.11913417     2.97970346
    40.12855678     3.62279979
    16.52809570     3.45184024
  s      2  0
    69.39096098     1.62199742
    20.42820060     6.33807623
  s      1  0
     7.12925880     3.10952016
  s      1  0
     3.13243049     1.67811289
  s      1  0
     0.98755779     0.70604435
  s      1  0
     0.38765721     0.35014344
  s      1  0
     0.14909883     0.17100774
  p      5  0
   150.05742670    -1.83415954
    35.49159948    -2.40616670
    11.24786422    -2.65297009
     4.09003052    -2.48266462
     1.62205731    -1.81812850
  p      1  0
     0.66442262     0.85505804
  p      1  0
     0.27099770     0.27870650
  p      1  0
     0.10688750     0.08711616
  d      1  0
     2.83700000    10.20735675
  d      1  0
     0.96800000     1.55486014
  d      1  0
     0.33500000     0.24279395
  f      1  0
     2.02700000     7.21731041
  f      1  0
     0.68500000     0.62843192
  g      1  0
     1.42700000     2.95870286

    2  0
  s      8  0
 90726.88921000     0.26446150
 13590.52880100     0.49493731
  3092.98837810     0.85516994
   875.99876362     1.38987366
   285.74469982     2.12169845
   103.11913417     2.97970346
    40.12855678     3.62279979
    16.52809570     3.45184024
  s      2  0
    69.39096098     1.62199742
    20.42820060     6.33807623
  s      1  0
     7.12925880     3.10952016
  s      1  0
     3.13243049     1.67811289
  s      1  0
     0.98755779     0.70604435
  s      1  0
     0.38765721     0.35014344
  s      1  0
     0.14909883     0.17100774
  p      5  0
   150.05742670    -1.83415954
    35.49159948    -2.40616670
    11.24786422    -2.65297009
     4.09003052    -2.48266462
     1.62205731    -1.81812850
  p      1  0
     0.66442262     0.85505804
  p      1  0
     0.27099770     0.27870650
  p      1  0
     0.10688750     0.08711616
  d      1  0
     2.83700000    10.20735675
  d      1  0
     0.96800000     1.55486014
  d      1  0
     0.33500000     0.24279395
  f      1  0
     2.02700000     7.21731041
  f      1  0
     0.68500000     0.62843192
  g      1  0
     1.42700000     2.95870286

    3  0
  s      8  0
 90726.88921000     0.26446150
 13590.52880100     0.49493731
  3092.98837810     0.85516994
   875.99876362     1.38987366
   285.74469982     2.12169845
   103.11913417     2.97970346
    40.12855678     3.62279979
    16.52809570     3.45184024
  s      2  0
    69.39096098     1.62199742
    20.42820060     6.33807623
  s      1  0
     7.12925880     3.10952016
  s      1  0
     3.13243049     1.67811289
  s      1  0
     0.98755779     0.70604435
  s      1  0
     0.38765721     0.35014344
  s      1  0
     0.14909883     0.17100774
  p      5  0
   150.05742670    -1.83415954
    35.49159948    -2.40616670
    11.24786422    -2.65297009
     4.09003052    -2.48266462
     1.62205731    -1.81812850
  p      1  0
     0.66442262     0.85505804
  p      1  0
     0.27099770     0.27870650
  p      1  0
     0.10688750     0.08711616
  d      1  0
     2.83700000    10.20735675
  d      1  0
     0.96800000     1.55486014
  d      1  0
     0.33500000     0.24279395
  f      1  0
     2.02700000     7.21731041
  f      1  0
     0.68500000     0.62843192
  g      1  0
     1.42700000     2.95870286

    4  0
  s      8  0
 90726.88921000     0.26446150
 13590.52880100     0.49493731
  3092.98837810     0.85516994
   875.99876362     1.38987366
   285.74469982     2.12169845
   103.11913417     2.97970346
    40.12855678     3.62279979
    16.52809570     3.45184024
  s      2  0
    69.39096098     1.62199742
    20.42820060     6.33807623
  s      1  0
     7.12925880     3.10952016
  s      1  0
     3.13243049     1.67811289
  s      1  0
     0.98755779     0.70604435
  s      1  0
     0.38765721     0.35014344
  s      1  0
     0.14909883     0.17100774
  p      5  0
   150.05742670    -1.83415954
    35.49159948    -2.40616670
    11.24786422    -2.65297009
     4.09003052    -2.48266462
     1.62205731    -1.81812850
  p      1  0
     0.66442262     0.85505804
  p      1  0
     0.27099770     0.27870650
  p      1  0
     0.10688750     0.08711616
  d      1  0
     2.83700000    10.20735675
  d      1  0
     0.96800000     1.55486014
  d      1  0
     0.33500000     0.24279395
  f      1  0
     2.02700000     7.21731041
  f      1  0
     0.68500000     0.62843192
  g      1  0
     1.42700000     2.95870286

[5D]
[9G]
[MO]
Sym=        a    
Ene=    -15.74888
Spin=       Alpha
Occup=    2.00000
     1    0.279110537388
     2   -0.000209598849
     3    0.185745931958
     4    0.084645987538
     5    0.005612147749
     6   -0.001848919158
     7    0.000904895276
     8    0.001080808889
     9    0.001089737943
    10    0.001072094485
    11    0.000937917529
    12    0.000966620460
    13    0.000913413241
    14   -0.000754184886
    15   -0.000726491827
    16   -0.000769390541
    17    0.000005074452
    18    0.000006708770
    19    0.000004088421
    20   -0.000002463782
    21    0.000041074445
    22    0.000043418963
    23   -0.000001676626
    24    0.000045221348
    25    0.000013503092
    26   -0.000037952532
    27   -0.000054238813
    28    0.000009161979
    29   -0.000067658773
    30    0.000005257407
    31    0.000271107063
    32    0.000253579793
    33    0.000005582550
    34    0.000242447341
    35   -0.000006028869
    36    0.000001401983
    37    0.000002941300
    38   -0.000001674820
    39    0.000016002804
    40   -0.000007147830
    41    0.000006399602
    42    0.000062082431
    43   -0.000044495654
    44   -0.000037836865
    45   -0.000006366227
    46    0.000046384984
    47    0.000040490132
    48   -0.000042255961
    49   -0.000009502040
    50    0.000006684929
    51    0.000005920203
    52    0.000001740479
    53   -0.000014728648
    54    0.000017869020
    55   -0.000015522371
    56   -0.000004764080
    57    0.000000105777
    58    0.265015969651
    59   -0.000195690759
    60    0.176356250746
    61    0.080400040208
    62    0.005210849835
    63   -0.001587817042
    64    0.001038630722
    65   -0.001014890289
    66   -0.001016658774
    67    0.001026099499
    68   -0.000884077075
    69   -0.000876276461
    70    0.000876451421
    71    0.000804222641
    72    0.000845336133
    73   -0.000835189703
    74    0.000004911025
    75    0.000006903878
    76   -0.000005812228
    77   -0.000000168555
    78   -0.000039248725
    79   -0.000037068413
    80    0.000000780145
    81    0.000038078085
    82    0.000005251607
    83    0.000046183478
    84    0.000036259587
    85   -0.000003770091
    86   -0.000048659597
    87   -0.000000190237
    88   -0.000275838493
    89   -0.000298186706
    90   -0.000014564642
    91    0.000281825227
    92   -0.000006976539
    93   -0.000003214609
    94   -0.000003606042
    95   -0.000000409619
    96    0.000016103243
    97    0.000007063395
    98   -0.000006918922
    99    0.000066172346
   100    0.000035636683
   101    0.000043465289
   102    0.000008597435
   103    0.000041529132
   104   -0.000055038353
   105    0.000048504018
   106   -0.000009375927
   107   -0.000005930444
   108   -0.000006446262
   109   -0.000002005408
   110   -0.000017824519
   111   -0.000015970535
   112    0.000017775228
   113   -0.000008112074
   114   -0.000000547678
   115    0.288519870233
   116   -0.000219099577
   117    0.192013804535
   118    0.087480829983
   119    0.005883367557
   120   -0.002030276222
   121    0.000819806396
   122   -0.001128166394
   123    0.001115712858
   124   -0.001125821910
   125   -0.000976084352
   126    0.000986072873
   127   -0.000981103122
   128    0.000722099778
   129   -0.000679764836
   130    0.000691053023
   131   -0.000011110998
   132    0.000012653138
   133   -0.000012405638
   134    0.000000008830
   135    0.000046290460
   136   -0.000047836778
   137   -0.000000807271
   138   -0.000046230797
   139    0.000001652613
   140   -0.000052141082
   141    0.000067674894
   142    0.000007899234
   143    0.000060183481
   144   -0.000007191156
   145    0.000244967203
   146   -0.000222084304
   147    0.000010402163
   148   -0.000238719860
   149    0.000005462590
   150   -0.000002213008
   151    0.000003618583
   152    0.000001339915
   153    0.000016219534
   154    0.000005480640
   155    0.000005190839
   156   -0.000055622650
   157    0.000033171192
   158   -0.000027897084
   159    0.000007201737
   160    0.000050466725
   161   -0.000043964401
   162   -0.000046374488
   163   -0.000006182321
   164    0.000005542600
   165   -0.000005211888
   166    0.000001535015
   167    0.000016603278
   168    0.000015903038
   169    0.000014251436
   170   -0.000006320725
   171    0.000000039108
   172    0.275135009698
   173   -0.000205845887
   174    0.183097191342
   175    0.083448444197
   176    0.005500012741
   177   -0.001775897939
   178    0.000949110921
   179    0.001064275100
   180   -0.001066155582
   181   -0.001062088078
   182    0.000923562689
   183   -0.000915414426
   184   -0.000928276795
   185   -0.000768433056
   186    0.000812280511
   187    0.000739967853
   188    0.000001660071
   189    0.000000352594
   190   -0.000002940237
   191    0.000000921919
   192   -0.000043877054
   193    0.000041567883
   194    0.000000812109
   195   -0.000040091050
   196   -0.000005019205
   197    0.000059752383
   198   -0.000049310319
   199   -0.000003949333
   200    0.000042343156
   201   -0.000021285567
   202   -0.000242865288
   203    0.000266722229
   204   -0.000015265574
   205   -0.000281867994
   206    0.000006505947
   207    0.000003517182
   208   -0.000003996066
   209    0.000000416638
   210    0.000016140398
   211   -0.000005727589
   212   -0.000005569233
   213   -0.000061370052
   214   -0.000025279632
   215    0.000031087083
   216   -0.000010649549
   217    0.000045750327
   218    0.000057037609
   219    0.000052318106
   220   -0.000006447279
   221   -0.000005366314
   222    0.000005244604
   223   -0.000002138805
   224    0.000018792770
   225   -0.000014535503
   226   -0.000016689270
   227   -0.000009117250
   228    0.000000160362
Sym=        a    
Ene=    -15.74797
Spin=       Alpha
Occup=    2.00000
     1   -0.166488075130
     2    0.000153821654
     3   -0.110916793725
     4   -0.050170091977
     5   -0.004703893983
     6    0.003281178262
     7    0.001963335695
     8   -0.000726371105
     9   -0.000684691815
    10   -0.000711740186
    11   -0.001010833832
    12   -0.000430243708
    13   -0.000881284794
    14   -0.001951364365
    15    0.000299114360
    16   -0.001469980748
    17   -0.000225375818
    18   -0.000088631872
    19   -0.000193561379
    20   -0.000020836766
    21   -0.000137413178
    22   -0.000010385282
    23   -0.000065815030
    24   -0.000037575188
    25    0.000083633592
    26    0.000477498472
    27   -0.000078987971
    28    0.000262719850
    29    0.000040248747
    30    0.000212647389
    31    0.001126184305
    32   -0.000162611663
    33    0.000657687431
    34    0.000110259102
    35   -0.000005596243
    36    0.000012880687
    37    0.000002846799
    38    0.000016887980
    39    0.000001149281
    40    0.000004601796
    41    0.000009537327
    42    0.000084398762
    43   -0.000360515385
    44    0.000074039536
    45   -0.000487826454
    46   -0.000044465507
    47   -0.000153690518
    48   -0.000071347286
    49   -0.000041371972
    50    0.000022315785
    51   -0.000003023901
    52    0.000119771741
    53    0.000006261532
    54    0.000068817474
    55    0.000027901252
    56    0.000017763383
    57    0.000007319380
    58   -0.083726063701
    59    0.000076833465
    60   -0.055777962260
    61   -0.025235593707
    62   -0.002330669432
    63    0.001576474515
    64    0.000915681578
    65    0.000324247597
    66    0.000368614284
    67   -0.000366614153
    68    0.000024940840
    69    0.000584707286
    70   -0.000525353263
    71   -0.000886853731
    72    0.001282285210
    73   -0.001045034662
    74   -0.000008424873
    75    0.000130508189
    76   -0.000118740076
    77   -0.000029288099
    78   -0.000016367399
    79    0.000108798256
    80    0.000063888119
    81    0.000003449865
    82    0.000113327103
    83    0.000132581450
    84   -0.000410905214
    85   -0.000251147802
    86   -0.000073943391
    87    0.000286601896
    88    0.000302638828
    89   -0.000958467627
    90   -0.000630032805
    91   -0.000166173586
    92   -0.000001749184
    93   -0.000002706844
    94   -0.000014396040
    95   -0.000018684912
    96    0.000000274840
    97    0.000005321025
    98    0.000009396952
    99    0.000054376315
   100   -0.000058850013
   101    0.000378889013
   102    0.000478375491
   103   -0.000016883488
   104   -0.000002724231
   105   -0.000209307267
   106   -0.000042709518
   107    0.000004928020
   108   -0.000023177006
   109   -0.000119103023
   110    0.000018238477
   111    0.000028477158
   112    0.000063038034
   113    0.000035987465
   114   -0.000005757363
   115    0.464710473165
   116   -0.000435253440
   117    0.309612635318
   118    0.139992361324
   119    0.013283702850
   120   -0.009283068755
   121   -0.005685555514
   122   -0.001998439355
   123    0.001966842069
   124   -0.001983256565
   125   -0.002226685896
   126    0.002117738856
   127   -0.002097516430
   128   -0.003308700296
   129    0.002947472797
   130   -0.002811140409
   131   -0.000502377302
   132    0.000481517144
   133   -0.000471394268
   134   -0.000012272132
   135    0.000177120333
   136   -0.000157082755
   137    0.000010450706
   138   -0.000184515423
   139    0.000048595464
   140   -0.000413129032
   141    0.000331629879
   142   -0.000037521766
   143    0.000449545050
   144    0.000115010066
   145   -0.001066384304
   146    0.000869278568
   147   -0.000099624096
   148    0.001148021911
   149   -0.000020956058
   150    0.000010020475
   151   -0.000009113719
   152    0.000002083499
   153   -0.000005180841
   154   -0.000016738291
   155   -0.000018318699
   156    0.000181253160
   157   -0.000087721912
   158    0.000028352748
   159   -0.000067445365
   160    0.000100360415
   161    0.000179406276
   162    0.000208145435
   163    0.000031711152
   164   -0.000013679578
   165    0.000010785765
   166   -0.000016117852
   167   -0.000054983133
   168   -0.000044219551
   169   -0.000032263298
   170    0.000053374517
   171    0.000000168805
   172   -0.237771336205
   173    0.000220866368
   174   -0.158409584999
   175   -0.071644506503
   176   -0.006702632176
   177    0.004575899410
   178    0.002728338291
   179   -0.001022563534
   180    0.001020180826
   181    0.000981044350
   182   -0.001269022454
   183    0.001203893560
   184    0.000763551008
   185   -0.002180882892
   186    0.001929791852
   187    0.000231095550
   188   -0.000284876794
   189    0.000267328435
   190    0.000157848160
   191    0.000062821848
   192    0.000058682872
   193   -0.000043837280
   194   -0.000007045611
   195    0.000156517173
   196   -0.000245669401
   197   -0.000077598624
   198    0.000012676115
   199    0.000028652368
   200   -0.000501556365
   201   -0.000612680433
   202   -0.000216448220
   203    0.000069942318
   204    0.000072843917
   205   -0.001201799876
   206    0.000012558286
   207   -0.000006455339
   208    0.000007872811
   209   -0.000002178153
   210    0.000002183101
   211   -0.000015284081
   212   -0.000016900484
   213   -0.000034387996
   214    0.000219635193
   215   -0.000270411410
   216    0.000056661185
   217   -0.000053589888
   218    0.000326344583
   219    0.000350916670
   220    0.000053128562
   221    0.000005011829
   222   -0.000008223995
   223    0.000014177610
   224    0.000073948240
   225   -0.000001525044
   226    0.000008895837
   227   -0.000106764594
   228   -0.000000716682
Sym=        a    
Ene=    -15.74796
Spin=       Alpha
Occup=    2.00000
     1    0.445841322576
     2   -0.000416875897
     3    0.297042287612
     4    0.134310753089
     5    0.012680288488
     6   -0.008744985019
     7   -0.005315953650
     8    0.001885256168
     9    0.001914581658
    10    0.001883217603
    11    0.001919065496
    12    0.002145782080
    13    0.002040953066
    14    0.002382007102
    15    0.003221533439
    16    0.002895614281
    17    0.000428591496
    18    0.000487248459
    19    0.000454480981
    20    0.000000290477
    21    0.000142039890
    22    0.000190130203
    23   -0.000026322227
    24    0.000161085566
    25   -0.000003391636
    26   -0.000279442956
    27   -0.000488851893
    28    0.000102811118
    29   -0.000361844753
    30   -0.000016867132
    31   -0.000750458805
    32   -0.001230864085
    33    0.000253371345
    34   -0.000930056329
    35    0.000019859214
    36   -0.000009629940
    37   -0.000013784805
    38    0.000007356208
    39   -0.000005223824
    40    0.000018349293
    41   -0.000011948990
    42   -0.000186413237
    43    0.000038029843
    44    0.000199754326
    45   -0.000185915936
    46    0.000099890870
    47   -0.000169458069
    48    0.000079984874
    49    0.000047109982
    50   -0.000010047883
    51   -0.000018172256
    52    0.000044404501
    53    0.000037722864
    54   -0.000023561129
    55    0.000058654892
    56    0.000029896809
    57    0.000003197388
    58   -0.143029001430
    59    0.000133261079
    60   -0.095291781255
    61   -0.043093993441
    62   -0.004009989358
    63    0.002662871867
    64    0.001574562522
    65    0.000602536826
    66    0.000621830653
    67   -0.000584340370
    68    0.000668451518
    69    0.000894087121
    70   -0.000333916873
    71    0.000995747884
    72    0.001880357536
    73    0.000339021387
    74    0.000150659581
    75    0.000204598331
    76   -0.000060538023
    77    0.000061448918
    78   -0.000007510721
    79    0.000041980357
    80    0.000026505714
    81   -0.000120359067
    82   -0.000239853487
    83    0.000140185423
    84   -0.000074219461
    85   -0.000103991210
    86    0.000413547771
    87   -0.000606232804
    88    0.000301219622
    89   -0.000202726170
    90   -0.000261871105
    91    0.000990686570
    92   -0.000009178174
    93    0.000013032400
    94    0.000008238352
    95   -0.000007394227
    96    0.000002121227
    97    0.000017733716
    98   -0.000011345380
    99    0.000003286600
   100   -0.000354170736
   101   -0.000182418214
   102    0.000189869984
   103   -0.000039089974
   104   -0.000357343707
   105    0.000263718575
   106    0.000062338726
   107    0.000016235470
   108    0.000005388994
   109   -0.000046507037
   110   -0.000065348305
   111    0.000030916951
   112    0.000005826107
   113   -0.000099827628
   114   -0.000004157585
   115   -0.017547874896
   116    0.000015486409
   117   -0.011688490923
   118   -0.005292879680
   119   -0.000497198897
   120    0.000392019314
   121    0.000233210512
   122    0.000086186411
   123   -0.000045616963
   124    0.000095017905
   125    0.000217107116
   126    0.000277493615
   127    0.000335941482
   128    0.000600069075
   129    0.001318224432
   130    0.001056246945
   131    0.000046450825
   132    0.000066891505
   133    0.000077267323
   134   -0.000046889614
   135   -0.000087181421
   136   -0.000020582156
   137   -0.000055034937
   138   -0.000047972975
   139    0.000185635715
   140    0.000370773439
   141    0.000101539725
   142    0.000219078247
   143    0.000220867724
   144    0.000466849836
   145    0.000856691363
   146    0.000243794555
   147    0.000551642106
   148    0.000517256420
   149   -0.000001837983
   150   -0.000013482044
   151    0.000005118274
   152   -0.000014021244
   153   -0.000000619573
   154   -0.000011583120
   155    0.000000038411
   156   -0.000051785302
   157    0.000416028944
   158   -0.000044487380
   159    0.000407596799
   160    0.000002529182
   161    0.000292877587
   162    0.000112463414
   163   -0.000058973654
   164    0.000021907306
   165    0.000001055887
   166    0.000100731111
   167   -0.000038289325
   168    0.000058703328
   169   -0.000018696872
   170    0.000066698362
   171   -0.000004720146
   172   -0.296109375036
   173    0.000275963018
   174   -0.197279677223
   175   -0.089212895453
   176   -0.008387082476
   177    0.005761077473
   178    0.003471466945
   179   -0.001235106383
   180    0.001275491273
   181    0.001260057214
   182   -0.001070433594
   183    0.001544083485
   184    0.001432462001
   185   -0.000756084368
   186    0.002611331236
   187    0.002169505363
   188   -0.000231416116
   189    0.000345473864
   190    0.000321588755
   191   -0.000014740787
   192    0.000066195447
   193   -0.000170818112
   194    0.000055214608
   195    0.000088351561
   196    0.000059208161
   197   -0.000065755194
   198    0.000519594451
   199   -0.000216213840
   200   -0.000160028865
   201    0.000152960761
   202   -0.000200264492
   203    0.001264500723
   204   -0.000545131985
   205   -0.000432261297
   206    0.000012183419
   207    0.000006536268
   208   -0.000015675376
   209    0.000015992565
   210    0.000003101750
   211   -0.000013774648
   212   -0.000001061305
   213   -0.000140125548
   214    0.000027738253
   215    0.000330207185
   216   -0.000404952543
   217   -0.000066895625
   218    0.000104489294
   219   -0.000080692481
   220   -0.000049827432
   221   -0.000001201559
   222    0.000021379024
   223   -0.000099202653
   224    0.000011754897
   225    0.000006757601
   226   -0.000071343825
   227    0.000003131425
   228    0.000005422884
Sym=        a    
Ene=    -15.74793
Spin=       Alpha
Occup=    2.00000
     1   -0.052818105170
     2    0.000050820348
     3   -0.035194702319
     4   -0.015900276482
     5   -0.001521992648
     6    0.001012198666
     7    0.000635687854
     8   -0.000242793962
     9   -0.000231823790
    10   -0.000197135115
    11   -0.000473526707
    12   -0.000313512055
    13    0.000102692298
    14   -0.001314024360
    15   -0.000677676087
    16    0.000962763019
    17   -0.000116505919
    18   -0.000076747635
    19    0.000029898360
    20    0.000066002821
    21    0.000000577982
    22    0.000037443089
    23   -0.000018309238
    24   -0.000094907614
    25   -0.000255504585
    26   -0.000044759123
    27   -0.000204104337
    28    0.000071320032
    29    0.000366928248
    30   -0.000652849981
    31   -0.000080618398
    32   -0.000454511248
    33    0.000182405342
    34    0.000884016719
    35   -0.000005684292
    36   -0.000011899158
    37   -0.000015573168
    38    0.000005928144
    39    0.000001212150
    40   -0.000010494714
    41    0.000014863783
    42   -0.000045931997
    43    0.000246509526
    44    0.000374182880
    45   -0.000143056996
    46   -0.000005628297
    47    0.000281423344
    48   -0.000338255747
    49    0.000076884673
    50   -0.000007270566
    51   -0.000013862695
    52    0.000035797093
    53   -0.000063296315
    54   -0.000005040596
    55    0.000032222946
    56   -0.000101687184
    57   -0.000000201067
    58    0.457696930751
    59   -0.000425932004
    60    0.304937849229
    61    0.137896209083
    62    0.012924834996
    63   -0.008808482970
    64   -0.005288115195
    65   -0.001929947176
    66   -0.001922190035
    67    0.001956913230
    68   -0.002102891793
    69   -0.001943010936
    70    0.002165400526
    71   -0.002965236550
    72   -0.002333329034
    73    0.003153326833
    74   -0.000467599017
    75   -0.000428014998
    76    0.000478988832
    77    0.000016523781
    78   -0.000195104801
    79   -0.000158181685
    80    0.000017316874
    81    0.000147526478
    82   -0.000060833517
    83    0.000503721594
    84    0.000341911951
    85   -0.000069502111
    86   -0.000302194740
    87   -0.000163119286
    88    0.001253173675
    89    0.000879585966
    90   -0.000180288554
    91   -0.000779061711
    92    0.000018837564
    93    0.000016831556
    94    0.000013282667
    95   -0.000005521006
    96   -0.000004982779
    97   -0.000011197411
    98    0.000015093099
    99   -0.000192208574
   100   -0.000249966004
   101   -0.000118975524
   102    0.000141059251
   103    0.000106593117
   104    0.000041485204
   105   -0.000099664600
   106    0.000061335534
   107    0.000021312007
   108    0.000012927987
   109   -0.000035657937
   110    0.000026786167
   111    0.000056684782
   112   -0.000029779096
   113    0.000013021069
   114   -0.000000724464
   115   -0.087610852714
   116    0.000082984762
   117   -0.058374213395
   118   -0.026383022583
   119   -0.002538707804
   120    0.001795042387
   121    0.001130635082
   122    0.000350674361
   123   -0.000378134933
   124    0.000396497971
   125    0.000074743029
   126   -0.000475785975
   127    0.000672069225
   128   -0.000706486504
   129   -0.000885994502
   130    0.001640371389
   131    0.000015014912
   132   -0.000110770080
   133    0.000160317232
   134   -0.000052167066
   135   -0.000017962857
   136    0.000108199329
   137    0.000046076037
   138   -0.000025804329
   139    0.000204481069
   140    0.000008671423
   141   -0.000403157841
   142   -0.000181981807
   143    0.000180029215
   144    0.000519888967
   145    0.000045738249
   146   -0.000969017703
   147   -0.000462438472
   148    0.000392412058
   149    0.000001848612
   150   -0.000009718575
   151    0.000017729232
   152    0.000013292152
   153    0.000001445648
   154    0.000001604111
   155   -0.000009189355
   156   -0.000084637649
   157    0.000118573498
   158   -0.000435374863
   159   -0.000347097426
   160   -0.000020257567
   161    0.000118450293
   162    0.000273520451
   163   -0.000072488732
   164    0.000004644713
   165   -0.000025121142
   166   -0.000086728622
   167   -0.000035648501
   168   -0.000005133620
   169    0.000061134637
   170    0.000067554408
   171    0.000004300719
   172   -0.295414983255
   173    0.000276891458
   174   -0.196823582628
   175   -0.088986395520
   176   -0.008438719968
   177    0.005860250865
   178    0.003595078716
   179   -0.001267030809
   180    0.001238409802
   181    0.001265633100
   182   -0.001481411323
   183    0.001079999852
   184    0.001507073018
   185   -0.002416905325
   186    0.000826844637
   187    0.002513222733
   188   -0.000336605066
   189    0.000240712855
   190    0.000344780177
   191   -0.000028906385
   192    0.000172465384
   193   -0.000081824401
   194   -0.000045477728
   195    0.000075531089
   196    0.000115349559
   197   -0.000525973451
   198    0.000130867347
   199    0.000179457833
   200   -0.000102835099
   201    0.000296332445
   202   -0.001293717972
   203    0.000368644971
   204    0.000460366921
   205   -0.000309210188
   206    0.000012032743
   207    0.000018704311
   208   -0.000009979848
   209   -0.000013395728
   210    0.000003729084
   211   -0.000000717847
   212   -0.000011581575
   213   -0.000148917681
   214   -0.000379616035
   215    0.000059901628
   216    0.000346904155
   217   -0.000067093428
   218   -0.000114829473
   219    0.000039955366
   220   -0.000065557703
   221   -0.000027027257
   222    0.000005706493
   223    0.000086934847
   224    0.000002001851
   225   -0.000070883505
   226   -0.000004579552
   227    0.000019665777
   228   -0.000004363117
Sym=        a    
Ene=     -1.65183
Spin=       Alpha
Occup=    2.00000
     1   -0.052849126435
     2   -0.007525546058
     3   -0.063668608584
     4   -0.036738051602
     5    0.124123989523
     6    0.191363593924
     7    0.034984786171
     8    0.035115673815
     9    0.035073066586
    10    0.035140683794
    11   -0.039504846071
    12   -0.039476601246
    13   -0.039517147303
    14   -0.021338135678
    15   -0.021426985854
    16   -0.021243638265
    17   -0.001191972679
    18   -0.001210533849
    19   -0.001173647227
    20    0.000001279283
    21    0.001285456375
    22    0.001268704833
    23    0.000001701312
    24    0.001252905950
    25   -0.000035591152
    26    0.007371814743
    27    0.007308882096
    28   -0.000016934514
    29    0.007247974070
    30   -0.000110388082
    31    0.007402809036
    32    0.007409701297
    33   -0.000061827473
    34    0.007418629281
    35    0.000248967686
    36   -0.000163689560
    37   -0.000147372521
    38   -0.000012228305
    39   -0.000208206204
    40    0.000172645567
    41   -0.000171550119
    42    0.002215659440
    43   -0.001323108062
    44   -0.001288926880
    45   -0.000001317421
    46   -0.001319624244
    47    0.001706255095
    48   -0.001664296753
    49   -0.000469637728
    50    0.000071692658
    51    0.000060403710
    52    0.000009518005
    53   -0.000193283831
    54    0.000210063508
    55   -0.000198661147
    56   -0.000375080658
    57   -0.000006520242
    58   -0.052492574475
    59   -0.007475347118
    60   -0.063240247173
    61   -0.036489273456
    62    0.123316591597
    63    0.190116809472
    64    0.034601631621
    65   -0.034560395155
    66   -0.034795469511
    67    0.035260769644
    68    0.038909507554
    69    0.039154374122
    70   -0.039681039494
    71    0.020991067122
    72    0.021107789450
    73   -0.021305965297
    74    0.001168496310
    75    0.001171784817
    76   -0.001172452240
    77    0.000023094285
    78   -0.001269117880