 argument  1 = N4.nw
                                         
                                         


              Northwest Computational Chemistry Package (NWChem) 6.8
              ------------------------------------------------------


                    Environmental Molecular Sciences Laboratory
                       Pacific Northwest National Laboratory
                                Richland, WA 99352

                              Copyright (c) 1994-2017
                       Pacific Northwest National Laboratory
                            Battelle Memorial Institute

             NWChem is an open-source computational chemistry package
                        distributed under the terms of the
                      Educational Community License (ECL) 2.0
             A copy of the license is included with this distribution
                              in the LICENSE.TXT file

                                  ACKNOWLEDGMENT
                                  --------------

            This software and its documentation were developed at the
            EMSL at Pacific Northwest National Laboratory, a multiprogram
            national laboratory, operated for the U.S. Department of Energy
            by Battelle under Contract Number DE-AC05-76RL01830. Support
            for this work was provided by the Department of Energy Office
            of Biological and Environmental Research, Office of Basic
            Energy Sciences, and the Office of Advanced Scientific Computing.


           Job information
           ---------------

    hostname        = vladimir-Kubuntu-16
    program         = nwchem
    date            = Sat Feb 16 13:59:52 2019

    compiled        = Wed_Aug_15_19:14:19_2018
    source          = /home/edo/debichem-team/nwchem/nwchem-6.8.1
    nwchem branch   = 6.8.1
    nwchem revision = v6.8-133-ge032219
    ga revision     = 5.6.5
    use scalapack   = T
    input           = N4.nw
    prefix          = N4.
    data base       = ./N4.db
    status          = startup
    nproc           =        1
    time left       =     -1s



           Memory information
           ------------------

    heap     =   13107198 doubles =    100.0 Mbytes
    stack    =   13107195 doubles =    100.0 Mbytes
    global   =   26214400 doubles =    200.0 Mbytes (distinct from heap & stack)
    total    =   52428793 doubles =    400.0 Mbytes
    verify   = yes
    hardfail = no 


           Directory information
           ---------------------

  0 permanent = .
  0 scratch   = .




                                NWChem Input Module
                                -------------------


                             test HF/def2-QZVP energy
                             ------------------------

 Scaling coordinates for geometry "geometry" by  1.889725989
 (inverse scale =  0.529177249)

 Turning off AUTOSYM since
 SYMMETRY directive was detected!


          ------
          auto-z
          ------


                             Geometry "geometry" -> ""
                             -------------------------

 Output coordinates in angstroms (scale by  1.889725989 to convert to a.u.)

  No.       Tag          Charge          X              Y              Z
 ---- ---------------- ---------- -------------- -------------- --------------
    1 N                    7.0000     0.52000000     0.52750000     0.51250000
    2 N                    7.0000    -0.52000000    -0.52250000     0.52250000
    3 N                    7.0000    -0.52000000     0.51750000    -0.51750000
    4 N                    7.0000     0.52000000    -0.52250000    -0.51750000

      Atomic Mass 
      ----------- 

      N                 14.003070


 Effective nuclear repulsion energy (a.u.)     105.7779480979

            Nuclear Dipole moment (a.u.) 
            ----------------------------
        X                 Y               Z
 ---------------- ---------------- ----------------
     0.0000000000     0.0000000000     0.0000000000



                                Z-matrix (autoz)
                                -------- 

 Units are Angstrom for bonds and degrees for angles

      Type          Name      I     J     K     L     M      Value
      ----------- --------  ----- ----- ----- ----- ----- ----------
    1 Stretch                  1     2                       1.47790
    2 Stretch                  1     3                       1.46376
    3 Stretch                  1     4                       1.47085
    4 Stretch                  2     3                       1.47078
    5 Stretch                  2     4                       1.47078
    6 Stretch                  3     4                       1.47078
    7 Bend                     1     2     3                59.52518
    8 Bend                     1     2     4                59.84274
    9 Bend                     1     3     2                60.47941
   10 Bend                     1     3     4                60.16083
   11 Bend                     1     4     2                60.31908
   12 Bend                     1     4     3                59.68296
   13 Bend                     2     1     3                59.99541
   14 Bend                     2     1     4                59.83818
   15 Bend                     2     3     4                60.00000
   16 Bend                     2     4     3                60.00000
   17 Bend                     3     1     4                60.15621
   18 Bend                     3     2     4                60.00000
   19 Torsion                  1     2     3     4          70.52878
   20 Torsion                  1     2     4     3         -70.01104
   21 Torsion                  1     3     2     4         -70.52878
   22 Torsion                  1     3     4     2          71.04985
   23 Torsion                  1     4     2     3          70.01104
   24 Torsion                  1     4     3     2         -71.04985
   25 Torsion                  2     1     3     4         -70.26888
   26 Torsion                  2     1     4     3          70.52462
   27 Torsion                  2     3     1     4          70.26888
   28 Torsion                  2     4     1     3         -70.52462
   29 Torsion                  3     1     2     4          70.78827
   30 Torsion                  3     2     1     4         -70.78827


            XYZ format geometry
            -------------------
     4
 geometry
 N                     0.52000000     0.52750000     0.51250000
 N                    -0.52000000    -0.52250000     0.52250000
 N                    -0.52000000     0.51750000    -0.51750000
 N                     0.52000000    -0.52250000    -0.51750000

 ==============================================================================
                                internuclear distances
 ------------------------------------------------------------------------------
       center one      |      center two      | atomic units |  angstroms
 ------------------------------------------------------------------------------
    2 N                |   1 N                |     2.79283  |     1.47790
    3 N                |   1 N                |     2.76611  |     1.46376
    3 N                |   2 N                |     2.77938  |     1.47078
    4 N                |   1 N                |     2.77950  |     1.47085
    4 N                |   2 N                |     2.77938  |     1.47078
    4 N                |   3 N                |     2.77938  |     1.47078
 ------------------------------------------------------------------------------
                         number of included internuclear distances:          6
 ==============================================================================



 ==============================================================================
                                 internuclear angles
 ------------------------------------------------------------------------------
        center 1       |       center 2       |       center 3       |  degrees
 ------------------------------------------------------------------------------
    1 N                |   3 N                |   2 N                |    60.48
    1 N                |   4 N                |   2 N                |    60.32
    1 N                |   3 N                |   4 N                |    60.16
    2 N                |   3 N                |   1 N                |    60.48
    2 N                |   4 N                |   1 N                |    60.32
    2 N                |   3 N                |   4 N                |    60.00
    1 N                |   3 N                |   2 N                |    60.48
    1 N                |   3 N                |   4 N                |    60.16
    3 N                |   2 N                |   4 N                |    60.00
    1 N                |   4 N                |   2 N                |    60.32
    4 N                |   3 N                |   1 N                |    60.16
    4 N                |   2 N                |   3 N                |    60.00
 ------------------------------------------------------------------------------
                            number of included internuclear angles:         12
 ==============================================================================



  library name resolved from: environment
  library file name is: </home/vladimir/bin/nwchem-6.8/src/basis/libraries/>
  
                      Basis "ao basis" -> "" (spherical)
                      -----
  N (Nitrogen)
  ------------
            Exponent  Coefficients 
       -------------- ---------------------------------------------------------
  1 S  9.07268892E+04  0.000039
  1 S  1.35905288E+04  0.000305
  1 S  3.09298838E+03  0.001600
  1 S  8.75998764E+02  0.006698
  1 S  2.85744700E+02  0.023690
  1 S  1.03119134E+02  0.071455
  1 S  4.01285568E+01  0.176328
  1 S  1.65280957E+01  0.326776

  2 S  6.93909610E+01  0.080052
  2 S  2.04282006E+01  0.782681

  3 S  7.12925880E+00  1.000000

  4 S  3.13243049E+00  1.000000

  5 S  9.87557787E-01  1.000000

  6 S  3.87657213E-01  1.000000

  7 S  1.49098831E-01  1.000000

  8 P  1.50057427E+02 -0.000862
  8 P  3.54915995E+01 -0.006857
  8 P  1.12478642E+01 -0.031796
  8 P  4.09003052E+00 -0.105374
  8 P  1.62205731E+00 -0.245197

  9 P  6.64422615E-01  1.000000

 10 P  2.70997701E-01  1.000000

 11 P  1.06887500E-01  1.000000

 12 D  2.83700000E+00  1.000000

 13 D  9.68000000E-01  1.000000

 14 D  3.35000000E-01  1.000000

 15 F  2.02700000E+00  1.000000

 16 F  6.85000000E-01  1.000000

 17 G  1.42700000E+00  1.000000



 Summary of "ao basis" -> "" (spherical)
 ------------------------------------------------------------------------------
       Tag                 Description            Shells   Functions and Types
 ---------------- ------------------------------  ------  ---------------------
 N                         def2-QZVP                17       57   7s4p3d2f1g


                              NWChem Property Module
                              ----------------------


                             test HF/def2-QZVP energy

                                 NWChem SCF Module
                                 -----------------


                             test HF/def2-QZVP energy



  ao basis        = "ao basis"
  functions       =   228
  atoms           =     4
  closed shells   =    14
  open shells     =     0
  charge          =   0.00
  wavefunction    = RHF 
  input vectors   = atomic
  output vectors  = ./N4.movecs
  use symmetry    = F
  symmetry adapt  = F


 Summary of "ao basis" -> "ao basis" (spherical)
 ------------------------------------------------------------------------------
       Tag                 Description            Shells   Functions and Types
 ---------------- ------------------------------  ------  ---------------------
 N                         def2-QZVP                17       57   7s4p3d2f1g



 Forming initial guess at       0.3s


      Superposition of Atomic Density Guess
      -------------------------------------

 Sum of atomic energies:        -217.25310692

      Non-variational initial energy
      ------------------------------

 Total energy =    -218.694928
 1-e energy   =    -505.772831
 2-e energy   =     181.299955
 HOMO         =      -0.351003
 LUMO         =       0.113895


 Starting SCF solution at       2.4s



 ----------------------------------------------
         Quadratically convergent ROHF

 Convergence threshold     :          1.000E-07
 Maximum no. of iterations :           30
 Final Fock-matrix accuracy:          1.000E-09
 ----------------------------------------------


 Integral file          = ./N4.aoints.0
 Record size in doubles =  65536        No. of integs per rec  =  43688
 Max. records in memory =      0        Max. records in file   = 180716
 No. of bits per label  =      8        No. of bits per value  =     64


 #quartets = 2.553D+06 #integrals = 2.990D+08 #direct =  0.0% #cached =100.0%


              iter       energy          gnorm     gmax       time
             ----- ------------------- --------- --------- --------
                 1     -217.5301651012  1.24D+00  2.65D-01     29.7
                 2     -217.6027829025  2.22D-01  4.36D-02     35.7
                 3     -217.6083574170  2.30D-02  7.28D-03     44.4
                 4     -217.6084359969  2.06D-04  4.06D-05     58.9
                 5     -217.6084360002  2.49D-08  5.93D-09     84.8


       Final RHF  results 
       ------------------ 

         Total SCF energy =   -217.608436000165
      One-electron energy =   -504.328587242017
      Two-electron energy =    180.942203143966
 Nuclear repulsion energy =    105.777948097886

        Time for solution =     81.8s


             Final eigenvalues
             -----------------

              1      
    1  -15.7489
    2  -15.7480
    3  -15.7480
    4  -15.7479
    5   -1.6518
    6   -1.0440
    7   -1.0407
    8   -1.0373
    9   -0.6858
   10   -0.5702
   11   -0.5690
   12   -0.5678
   13   -0.5339
   14   -0.5287
   15    0.1555
   16    0.1565
   17    0.1574
   18    0.1855
   19    0.1872
   20    0.1890
   21    0.2446
   22    0.3135
   23    0.3141
   24    0.3148

                       ROHF Final Molecular Orbital Analysis
                       -------------------------------------

 Vector    5  Occ=2.000000D+00  E=-1.651830D+00
              MO Center= -1.3D-05,  2.5D-03, -2.4D-03, r^2= 6.9D-01
   Bfn.  Coefficient  Atom+Function         Bfn.  Coefficient  Atom+Function  
  ----- ------------  ---------------      ----- ------------  ---------------
   120      0.192619  3 N  s                  6      0.191364  1 N  s          
   177      0.191352  4 N  s                 63      0.190117  2 N  s          

 Vector    6  Occ=2.000000D+00  E=-1.044032D+00
              MO Center= -1.5D-02, -3.8D-03,  9.2D-02, r^2= 1.3D+00
   Bfn.  Coefficient  Atom+Function         Bfn.  Coefficient  Atom+Function  
  ----- ------------  ---------------      ----- ------------  ---------------
    63     -0.328672  2 N  s                  6      0.307035  1 N  s          
   120      0.181128  3 N  s                 62     -0.171800  2 N  s          
   177     -0.162242  4 N  s                  5      0.160585  1 N  s          

 Vector    7  Occ=2.000000D+00  E=-1.040664D+00
              MO Center=  2.8D-02, -9.0D-02, -8.9D-02, r^2= 1.3D+00
   Bfn.  Coefficient  Atom+Function         Bfn.  Coefficient  Atom+Function  
  ----- ------------  ---------------      ----- ------------  ---------------
   177      0.380589  4 N  s                 63     -0.234327  2 N  s          
   120     -0.233411  3 N  s                176      0.198568  4 N  s          
   178      0.152484  4 N  s          

 Vector    8  Occ=2.000000D+00  E=-1.037346D+00
              MO Center= -1.4D-02,  9.5D-02, -4.6D-03, r^2= 1.3D+00
   Bfn.  Coefficient  Atom+Function         Bfn.  Coefficient  Atom+Function  
  ----- ------------  ---------------      ----- ------------  ---------------
   120     -0.329734  3 N  s                  6      0.307410  1 N  s          
    63      0.183836  2 N  s                119     -0.171716  3 N  s          
     5      0.160006  1 N  s                177     -0.158760  4 N  s          

 Vector    9  Occ=2.000000D+00  E=-6.858207D-01
              MO Center= -9.5D-06,  3.7D-03, -3.7D-03, r^2= 2.0D+00
   Bfn.  Coefficient  Atom+Function         Bfn.  Coefficient  Atom+Function  
  ----- ------------  ---------------      ----- ------------  ---------------
     6      0.146846  1 N  s                 63      0.146757  2 N  s          
   120      0.146898  3 N  s                177      0.146840  4 N  s          

 Vector   10  Occ=2.000000D+00  E=-5.701833D-01
              MO Center= -1.6D-01, -1.6D-01,  3.2D-01, r^2= 1.6D+00
   Bfn.  Coefficient  Atom+Function         Bfn.  Coefficient  Atom+Function  
  ----- ------------  ---------------      ----- ------------  ---------------
    63      0.251081  2 N  s                 13     -0.157215  1 N  pz         
    16     -0.152769  1 N  pz                10      0.151570  1 N  pz         

 Vector   11  Occ=2.000000D+00  E=-5.690442D-01
              MO Center=  3.2D-01, -1.4D-01, -1.5D-01, r^2= 1.7D+00
   Bfn.  Coefficient  Atom+Function         Bfn.  Coefficient  Atom+Function  
  ----- ------------  ---------------      ----- ------------  ---------------
   177      0.247009  4 N  s                  6     -0.157183  1 N  s          
    11     -0.157599  1 N  px                14     -0.154270  1 N  px         
     8      0.152047  1 N  px         

 Vector   12  Occ=2.000000D+00  E=-5.678431D-01
              MO Center= -1.6D-01,  3.0D-01, -1.8D-01, r^2= 1.6D+00
   Bfn.  Coefficient  Atom+Function         Bfn.  Coefficient  Atom+Function  
  ----- ------------  ---------------      ----- ------------  ---------------
   120      0.250669  3 N  s                 12     -0.155701  1 N  py         
    15     -0.151978  1 N  py         

 Vector   13  Occ=2.000000D+00  E=-5.339279D-01
              MO Center= -4.7D-05, -1.2D-02,  2.6D-03, r^2= 1.5D+00
   Bfn.  Coefficient  Atom+Function         Bfn.  Coefficient  Atom+Function  
  ----- ------------  ---------------      ----- ------------  ---------------
    69      0.141271  2 N  py               183      0.139639  4 N  py         
    12     -0.138552  1 N  py                72      0.139231  2 N  py         
   126     -0.137717  3 N  py                15     -0.136970  1 N  py         
   186      0.137575  4 N  py               129     -0.136095  3 N  py         
    66     -0.133156  2 N  py               180     -0.131537  4 N  py         

 Vector   14  Occ=2.000000D+00  E=-5.286634D-01
              MO Center= -4.6D-05, -2.5D-03,  1.2D-02, r^2= 1.5D+00
   Bfn.  Coefficient  Atom+Function         Bfn.  Coefficient  Atom+Function  
  ----- ------------  ---------------      ----- ------------  ---------------
    13     -0.141109  1 N  pz                70     -0.141752  2 N  pz         
    16     -0.139612  1 N  pz                73     -0.140267  2 N  pz         
   184      0.139843  4 N  pz               127      0.138535  3 N  pz         
   187      0.138715  4 N  pz               130      0.137395  3 N  pz         
    67      0.133579  2 N  pz                10      0.132898  1 N  pz         

 Vector   15  Occ=0.000000D+00  E= 1.555366D-01
              MO Center= -3.1D-03,  4.7D-04,  4.2D-02, r^2= 6.4D+00
   Bfn.  Coefficient  Atom+Function         Bfn.  Coefficient  Atom+Function  
  ----- ------------  ---------------      ----- ------------  ---------------
    64      4.626958  2 N  s                  7     -4.060953  1 N  s          
   121     -1.622048  3 N  s                 75      1.128965  2 N  py         
    18      1.072543  1 N  py               178      1.051703  4 N  s          
    72      0.957614  2 N  py                15      0.886008  1 N  py         
    74      0.860980  2 N  px                71      0.799804  2 N  px         

 Vector   16  Occ=0.000000D+00  E= 1.565436D-01
              MO Center=  1.3D-02, -2.1D-02, -2.7D-02, r^2= 6.5D+00
   Bfn.  Coefficient  Atom+Function         Bfn.  Coefficient  Atom+Function  
  ----- ------------  ---------------      ----- ------------  ---------------
   178      5.417441  4 N  s                121     -2.806467  3 N  s          
    64     -2.377145  2 N  s                188     -1.153001  4 N  px         
   185     -1.030768  4 N  px               189      0.948448  4 N  py         
   186      0.915831  4 N  py               190      0.892437  4 N  pz         
   187      0.878277  4 N  pz               131     -0.838418  3 N  px         

 Vector   17  Occ=0.000000D+00  E= 1.574244D-01
              MO Center= -1.1D-02,  1.5D-02, -6.9D-03, r^2= 6.5D+00
   Bfn.  Coefficient  Atom+Function         Bfn.  Coefficient  Atom+Function  
  ----- ------------  ---------------      ----- ------------  ---------------
   121      4.720828  3 N  s                  7     -3.932276  1 N  s          
    64     -2.104727  2 N  s                178      1.320826  4 N  s          
   133      1.138255  3 N  pz                19      1.033533  1 N  pz         
   130      0.979800  3 N  pz                16      0.866874  1 N  pz         
    76      0.857901  2 N  pz               131      0.802247  3 N  px         

 Vector   18  Occ=0.000000D+00  E= 1.855367D-01
              MO Center=  7.5D-02, -4.3D-02,  2.0D-01, r^2= 2.5D+00
   Bfn.  Coefficient  Atom+Function         Bfn.  Coefficient  Atom+Function  
  ----- ------------  ---------------      ----- ------------  ---------------
    19      0.745211  1 N  pz                76     -0.721848  2 N  pz         
   188      0.552872  4 N  px                17     -0.449432  1 N  px         
   131      0.383999  3 N  px               189      0.380178  4 N  py         
     7     -0.334881  1 N  s                 75     -0.301206  2 N  py         
    74     -0.281033  2 N  px                64      0.273396  2 N  s          

 Vector   19  Occ=0.000000D+00  E= 1.872183D-01
              MO Center= -1.4D-01, -1.8D-01, -1.7D-01, r^2= 2.4D+00
   Bfn.  Coefficient  Atom+Function         Bfn.  Coefficient  Atom+Function  
  ----- ------------  ---------------      ----- ------------  ---------------
   133     -0.630863  3 N  pz               190      0.627592  4 N  pz         
    75      0.618019  2 N  py               189     -0.620850  4 N  py         
    74     -0.557986  2 N  px               131      0.530266  3 N  px         
   130     -0.184660  3 N  pz               187      0.180987  4 N  pz         
   186     -0.175243  4 N  py                72      0.172019  2 N  py         

 Vector   20  Occ=0.000000D+00  E= 1.889760D-01
              MO Center=  6.1D-02,  2.3D-01, -4.2D-02, r^2= 2.5D+00
   Bfn.  Coefficient  Atom+Function         Bfn.  Coefficient  Atom+Function  
  ----- ------------  ---------------      ----- ------------  ---------------
   132     -0.696440  3 N  py                18      0.670995  1 N  py         
    17     -0.590779  1 N  px               188      0.493004  4 N  px         
   131     -0.419840  3 N  px               133     -0.409309  3 N  pz         
   190      0.333211  4 N  pz                 7      0.323881  1 N  s          
    74      0.322503  2 N  px               121     -0.264694  3 N  s          

 Vector   21  Occ=0.000000D+00  E= 2.445861D-01
              MO Center=  1.3D-04,  6.0D-03, -5.7D-03, r^2= 7.7D+00
   Bfn.  Coefficient  Atom+Function         Bfn.  Coefficient  Atom+Function  
  ----- ------------  ---------------      ----- ------------  ---------------
    64      0.612399  2 N  s                131     -0.585405  3 N  px         
   133     -0.583816  3 N  pz                 7      0.578210  1 N  s          
    18      0.580220  1 N  py               132      0.578848  3 N  py         
    17      0.575889  1 N  px               178      0.578595  4 N  s          
   188      0.575625  4 N  px               189     -0.577210  4 N  py         

 Vector   22  Occ=0.000000D+00  E= 3.135141D-01
              MO Center= -1.4D-01, -6.4D-02,  5.7D-01, r^2= 6.8D+00
   Bfn.  Coefficient  Atom+Function         Bfn.  Coefficient  Atom+Function  
  ----- ------------  ---------------      ----- ------------  ---------------
    64      3.324112  2 N  s                  7     -2.870376  1 N  s          
   121     -1.364177  3 N  s                 76     -1.224022  2 N  pz         
    74      1.115018  2 N  px                19      1.104762  1 N  pz         
    75      0.970582  2 N  py                17      0.949497  1 N  px         
   178      0.899264  4 N  s                 18      0.792798  1 N  py         

 Vector   23  Occ=0.000000D+00  E= 3.141366D-01
              MO Center=  2.8D-01, -5.2D-01, -5.0D-01, r^2= 6.6D+00
   Bfn.  Coefficient  Atom+Function         Bfn.  Coefficient  Atom+Function  
  ----- ------------  ---------------      ----- ------------  ---------------
   178      3.829493  4 N  s                 64     -1.868897  2 N  s          
   121     -1.796295  3 N  s                189      1.329552  4 N  py         
   190      1.305139  4 N  pz               188     -1.194391  4 N  px         
    75     -0.853854  2 N  py               133     -0.842554  3 N  pz         
    76      0.576486  2 N  pz               185     -0.556376  4 N  px         

 Vector   24  Occ=0.000000D+00  E= 3.147512D-01
              MO Center= -1.4D-01,  5.8D-01, -7.0D-02, r^2= 6.8D+00
   Bfn.  Coefficient  Atom+Function         Bfn.  Coefficient  Atom+Function  
  ----- ------------  ---------------      ----- ------------  ---------------
   121      3.298521  3 N  s                  7     -2.790154  1 N  s          
    64     -1.267484  2 N  s                132     -1.238481  3 N  py         
    18      1.130938  1 N  py               131      1.123882  3 N  px         
   133      0.951401  3 N  pz                17      0.921178  1 N  px         
   178      0.770104  4 N  s                 19      0.761922  1 N  pz         

 Vector   25  Occ=0.000000D+00  E= 3.294795D-01
              MO Center=  4.1D-05, -7.0D-03,  1.5D-03, r^2= 6.5D+00
   Bfn.  Coefficient  Atom+Function         Bfn.  Coefficient  Atom+Function  
  ----- ------------  ---------------      ----- ------------  ---------------
    18      0.745249  1 N  py                75     -0.742932  2 N  py         
   132      0.744396  3 N  py               189     -0.738158  4 N  py         
    74      0.554717  2 N  px               188     -0.555536  4 N  px         
    17     -0.538987  1 N  px               131      0.539654  3 N  px         
    72      0.334000  2 N  py               186      0.330639  4 N  py         

 Vector   26  Occ=0.000000D+00  E= 3.303454D-01
              MO Center=  4.0D-05, -1.5D-03,  7.6D-03, r^2= 6.5D+00
   Bfn.  Coefficient  Atom+Function         Bfn.  Coefficient  Atom+Function  
  ----- ------------  ---------------      ----- ------------  ---------------
   190     -0.753973  4 N  pz                19      0.748345  1 N  pz         
    76      0.748537  2 N  pz               133     -0.750001  3 N  pz         
    17     -0.553658  1 N  px                74      0.553695  2 N  px         
   131      0.537576  3 N  px               188     -0.537767  4 N  px         
    16     -0.334272  1 N  pz                73     -0.335677  2 N  pz         

 Vector   27  Occ=0.000000D+00  E= 4.246347D-01
              MO Center=  5.1D-02,  3.8D-02, -8.1D-02, r^2= 3.6D+00
   Bfn.  Coefficient  Atom+Function         Bfn.  Coefficient  Atom+Function  
  ----- ------------  ---------------      ----- ------------  ---------------
    64      5.803823  2 N  s                  7     -4.151681  1 N  s          
   121     -1.453053  3 N  s                 73     -1.046327  2 N  pz         
    72      1.040316  2 N  py                71      1.014876  2 N  px         
    75      0.822451  2 N  py                18      0.795269  1 N  py         
    15      0.760626  1 N  py                14      0.751241  1 N  px         

 Vector   28  Occ=0.000000D+00  E= 4.270824D-01
              MO Center= -8.8D-02,  8.2D-02,  7.5D-02, r^2= 3.6D+00
   Bfn.  Coefficient  Atom+Function         Bfn.  Coefficient  Atom+Function  
  ----- ------------  ---------------      ----- ------------  ---------------
   178      6.401953  4 N  s                  7     -2.457389  1 N  s          
    64     -1.979802  2 N  s                121     -1.964529  3 N  s          
   186      1.150543  4 N  py               185     -1.138142  4 N  px         
   187      1.137898  4 N  pz               189      0.674536  4 N  py         
   190      0.652246  4 N  pz               177     -0.623188  4 N  s          

 Vector   29  Occ=0.000000D+00  E= 4.295280D-01
              MO Center=  3.5D-02, -1.5D-01,  3.0D-02, r^2= 3.5D+00
   Bfn.  Coefficient  Atom+Function         Bfn.  Coefficient  Atom+Function  
  ----- ------------  ---------------      ----- ------------  ---------------
   121      6.017597  3 N  s                  7     -4.200507  1 N  s          
    64     -1.525655  2 N  s                130      1.118746  3 N  pz         
   128      1.110953  3 N  px               129     -0.996145  3 N  py         
    16      0.813161  1 N  pz                14      0.787499  1 N  px         
   133      0.728484  3 N  pz                76      0.723866  2 N  pz         

 Vector   30  Occ=0.000000D+00  E= 4.565277D-01
              MO Center=  1.1D-01, -6.6D-02,  1.8D-01, r^2= 6.8D+00
   Bfn.  Coefficient  Atom+Function         Bfn.  Coefficient  Atom+Function  
  ----- ------------  ---------------      ----- ------------  ---------------
    19      2.347218  1 N  pz                76     -2.313792  2 N  pz         
   188      1.869017  4 N  px                17     -1.801401  1 N  px         
   189      1.342320  4 N  py                75     -1.296172  2 N  py         
   131      1.051451  3 N  px                74     -0.984942  2 N  px         
    73      0.610276  2 N  pz                16     -0.605134  1 N  pz         

 Vector   31  Occ=0.000000D+00  E= 4.569039D-01
              MO Center= -1.6D-01, -1.9D-01, -1.7D-01, r^2= 6.7D+00
   Bfn.  Coefficient  Atom+Function         Bfn.  Coefficient  Atom+Function  
  ----- ------------  ---------------      ----- ------------  ---------------
    75     -2.057487  2 N  py               189      2.054447  4 N  py         
   133      2.031778  3 N  pz               190     -2.034807  4 N  pz         
    74      1.953302  2 N  px               131     -1.939801  3 N  px         
    72      0.579917  2 N  py               186     -0.580158  4 N  py         
   130     -0.564494  3 N  pz               187      0.564686  4 N  pz         

 Vector   32  Occ=0.000000D+00  E= 4.574152D-01
              MO Center=  5.2D-02,  2.9D-01, -4.5D-02, r^2= 6.7D+00
   Bfn.  Coefficient  Atom+Function         Bfn.  Coefficient  Atom+Function  
  ----- ------------  ---------------      ----- ------------  ---------------
   132     -2.430523  3 N  py                18      2.395260  1 N  py         
    17     -1.687988  1 N  px               188      1.608055  4 N  px         
   133     -1.319590  3 N  pz               190      1.263328  4 N  pz         
   131     -1.160251  3 N  px                74      1.081583  2 N  px         
    19     -0.822360  1 N  pz                76      0.751492  2 N  pz         

 Vector   33  Occ=0.000000D+00  E= 5.373006D-01
              MO Center=  1.4D-04, -5.7D-03,  6.0D-03, r^2= 3.6D+00
   Bfn.  Coefficient  Atom+Function         Bfn.  Coefficient  Atom+Function  
  ----- ------------  ---------------      ----- ------------  ---------------
     6      1.865114  1 N  s                 63      1.864281  2 N  s          
   120      1.866639  3 N  s                177      1.865260  4 N  s          
    64     -1.022953  2 N  s                  7     -0.892678  1 N  s          
   178     -0.885267  4 N  s                121     -0.745786  3 N  s          
    76      0.414099  2 N  pz                75     -0.405247  2 N  py         


------------------------------------------------------------
EAF file 0: "./N4.aoints.0" size=3588227072 bytes
------------------------------------------------------------
               write      read    awrite     aread      wait
               -----      ----    ------     -----      ----
     calls:     6844        19         0    130017    130017
   data(b): 3.59e+09  9.96e+06  0.00e+00  6.82e+10
   time(s): 0.00e+00  0.00e+00  0.00e+00  0.00e+00  0.00e+00
rate(mb/s): 0.00e+00  0.00e+00
------------------------------------------------------------


 center of mass
 --------------
 x =   0.00000000 y =   0.00000000 z =   0.00000000

 moments of inertia (a.u.)
 ------------------
         108.180184876804          -0.260030490378           0.260030490378
          -0.260030490378         107.656373456283           0.003750439765
           0.260030490378           0.003750439765         108.696495417795

  Mulliken analysis of the total density
  --------------------------------------

    Atom       Charge   Shell Charges
 -----------   ------   -------------------------------------------------------
    1 N    7     7.00   1.06  0.00  0.69  0.22  0.47  1.01  0.34  0.79  1.18  0.99  0.13  0.00  0.04  0.07  0.00  0.02  0.00
    2 N    7     7.00   1.06  0.00  0.69  0.22  0.47  1.01  0.34  0.79  1.18  0.99  0.13  0.00  0.04  0.07  0.00  0.02  0.00
    3 N    7     7.00   1.06  0.00  0.69  0.22  0.47  1.01  0.34  0.79  1.18  0.98  0.13  0.00  0.04  0.07  0.00  0.02  0.00
    4 N    7     7.00   1.06  0.00  0.69  0.22  0.47  1.01  0.34  0.79  1.18  0.99  0.13  0.00  0.04  0.07  0.00  0.02  0.00

       Multipole analysis of the density wrt the origin
       ------------------------------------------------

     L   x y z        total         open         nuclear
     -   - - -        -----         ----         -------
     0   0 0 0     -0.000000      0.000000     28.000000

     1   1 0 0     -0.000042      0.000000      0.000000
     1   0 1 0      0.002965      0.000000      0.000000
     1   0 0 1     -0.003003      0.000000      0.000000

     2   2 0 0    -16.638673      0.000000     27.037242
     2   1 1 0      0.007001      0.000000      0.129987
     2   1 0 1     -0.006976      0.000000     -0.129987
     2   0 2 0    -16.610520      0.000000     27.299090
     2   0 1 1     -0.000216      0.000000     -0.001875
     2   0 0 2    -16.666540      0.000000     26.779143


 Parallel integral file used    6844 records with       0 large values

 MOLDEN output will be written to the file ./N4.molden
  do_norm_janpa  F
  do_norm_nwchem  F
  molden scftype: RHF                  spinref:                     1
  
  Molden file created 
  If you plan to use JANPA 
    run the .molden file through 
    molden2molden.jar -NormalizeBF to get the
    correct Molden normalization 
   

 Task  times  cpu:       85.3s     wall:       91.9s
 Summary of allocated global arrays
-----------------------------------
  No active global arrays



                         GA Statistics for process    0
                         ------------------------------

       create   destroy   get      put      acc     scatter   gather  read&inc
calls:  385      385     1.90e+04 1.18e+04 1.05e+04    0        0       53     
number of processes/call 1.00e+00 1.00e+00 1.00e+00 0.00e+00 0.00e+00
bytes total:             1.50e+08 9.12e+07 2.33e+07 0.00e+00 0.00e+00 4.24e+02
bytes remote:            0.00e+00 0.00e+00 0.00e+00 0.00e+00 0.00e+00 0.00e+00
Max memory consumed for GA by this process: 5406336 bytes
MA_summarize_allocated_blocks: starting scan ...
MA_summarize_allocated_blocks: scan completed: 0 heap blocks, 0 stack blocks
MA usage statistics:

	allocation statistics:
					      heap	     stack
					      ----	     -----
	current number of blocks	         0	         0
	maximum number of blocks	        20	        14
	current total bytes		         0	         0
	maximum total bytes		    224592	  44469624
	maximum total K-bytes		       225	     44470
	maximum total M-bytes		         1	        45


                                NWChem Input Module
                                -------------------





                                     CITATION
                                     --------
                Please cite the following reference when publishing
                           results obtained with NWChem:

                 M. Valiev, E.J. Bylaska, N. Govind, K. Kowalski,
              T.P. Straatsma, H.J.J. van Dam, D. Wang, J. Nieplocha,
                        E. Apra, T.L. Windus, W.A. de Jong
                 "NWChem: a comprehensive and scalable open-source
                  solution for large scale molecular simulations"
                      Comput. Phys. Commun. 181, 1477 (2010)
                           doi:10.1016/j.cpc.2010.04.018

                                      AUTHORS
                                      -------
          E. Apra, E. J. Bylaska, W. A. de Jong, N. Govind, K. Kowalski,
       T. P. Straatsma, M. Valiev, H. J. J. van Dam, D. Wang, T. L. Windus,
        J. Hammond, J. Autschbach, K. Bhaskaran-Nair, J. Brabec, K. Lopata,
    S. A. Fischer, S. Krishnamoorthy, M. Jacquelin, W. Ma, M. Klemm, O. Villa,
      Y. Chen, V. Anisimov, F. Aquino, S. Hirata, M. T. Hackler, V. Konjkov,
            D. Mejia-Rodriguez, T. Risthaus, M. Malagoli, A. Marenich,
   A. Otero-de-la-Roza, J. Mullin, P. Nichols, R. Peverati, J. Pittner, Y. Zhao,
        P.-D. Fan, A. Fonari, M. J. Williamson, R. J. Harrison, J. R. Rehr,
      M. Dupuis, D. Silverstein, D. M. A. Smith, J. Nieplocha, V. Tipparaju,
    M. Krishnan, B. E. Van Kuiken, A. Vazquez-Mayagoitia, L. Jensen, M. Swart,
      Q. Wu, T. Van Voorhis, A. A. Auer, M. Nooijen, L. D. Crosby, E. Brown,
      G. Cisneros, G. I. Fann, H. Fruchtl, J. Garza, K. Hirao, R. A. Kendall,
      J. A. Nichols, K. Tsemekhman, K. Wolinski, J. Anchell, D. E. Bernholdt,
      P. Borowski, T. Clark, D. Clerc, H. Dachsel, M. J. O. Deegan, K. Dyall,
    D. Elwood, E. Glendening, M. Gutowski, A. C. Hess, J. Jaffe, B. G. Johnson,
     J. Ju, R. Kobayashi, R. Kutteh, Z. Lin, R. Littlefield, X. Long, B. Meng,
      T. Nakajima, S. Niu, L. Pollack, M. Rosing, K. Glaesemann, G. Sandrone,
      M. Stave, H. Taylor, G. Thomas, J. H. van Lenthe, A. T. Wong, Z. Zhang.

 Total times  cpu:       85.3s     wall:       92.0s
