[Molden Format]
[Atoms] (Angs)
  N      1    7      0.52000000      0.53000000      0.51000000
  N      2    7     -0.52000000     -0.52000000      0.52000000
  N      3    7     -0.52000000      0.52000000     -0.52000000
  N      4    7      0.52000000     -0.52000000     -0.52000000
[GTO]
1    0
S    5    1.000000
   1.71284159E+03   -5.39341253E-03 
   2.57648127E+02   -4.02215811E-02 
   5.84582459E+01   -1.79311450E-01 
   1.61983679E+01   -4.63763178E-01 
   5.00526008E+00   -4.41714227E-01 
S    1    1.000000
   5.87318566E-01    1.00000000E+00 
S    1    1.000000
   1.87645923E-01    1.00000000E+00 
P    3    1.000000
   1.35714702E+01   -4.00723989E-02 
   2.92573729E+00   -2.18070450E-01 
   7.99277508E-01   -5.12944660E-01 
P    1    1.000000
   2.19543480E-01    1.00000000E+00 
D    1    1.000000
   1.00000000E+00    1.00000000E+00 

2    0
S    5    1.000000
   1.71284159E+03   -5.39341253E-03 
   2.57648127E+02   -4.02215811E-02 
   5.84582459E+01   -1.79311450E-01 
   1.61983679E+01   -4.63763178E-01 
   5.00526008E+00   -4.41714227E-01 
S    1    1.000000
   5.87318566E-01    1.00000000E+00 
S    1    1.000000
   1.87645923E-01    1.00000000E+00 
P    3    1.000000
   1.35714702E+01   -4.00723989E-02 
   2.92573729E+00   -2.18070450E-01 
   7.99277508E-01   -5.12944660E-01 
P    1    1.000000
   2.19543480E-01    1.00000000E+00 
D    1    1.000000
   1.00000000E+00    1.00000000E+00 

3    0
S    5    1.000000
   1.71284159E+03   -5.39341253E-03 
   2.57648127E+02   -4.02215811E-02 
   5.84582459E+01   -1.79311450E-01 
   1.61983679E+01   -4.63763178E-01 
   5.00526008E+00   -4.41714227E-01 
S    1    1.000000
   5.87318566E-01    1.00000000E+00 
S    1    1.000000
   1.87645923E-01    1.00000000E+00 
P    3    1.000000
   1.35714702E+01   -4.00723989E-02 
   2.92573729E+00   -2.18070450E-01 
   7.99277508E-01   -5.12944660E-01 
P    1    1.000000
   2.19543480E-01    1.00000000E+00 
D    1    1.000000
   1.00000000E+00    1.00000000E+00 

4    0
S    5    1.000000
   1.71284159E+03   -5.39341253E-03 
   2.57648127E+02   -4.02215811E-02 
   5.84582459E+01   -1.79311450E-01 
   1.61983679E+01   -4.63763178E-01 
   5.00526008E+00   -4.41714227E-01 
S    1    1.000000
   5.87318566E-01    1.00000000E+00 
S    1    1.000000
   1.87645923E-01    1.00000000E+00 
P    3    1.000000
   1.35714702E+01   -4.00723989E-02 
   2.92573729E+00   -2.18070450E-01 
   7.99277508E-01   -5.12944660E-01 
P    1    1.000000
   2.19543480E-01    1.00000000E+00 
D    1    1.000000
   1.00000000E+00    1.00000000E+00 

[MO]
Sym=X
Ene= -15.752733
Spin=Alpha
Occup=1
     1    5.016172737874e-01
     2   -1.707535399040e-02
     3    4.741250782293e-03
     4   -1.181789292547e-03
     5   -1.194823819592e-03
     6   -1.169649866522e-03
     7   -1.372678203028e-03
     8   -1.374645598323e-03
     9   -1.389456651028e-03
    10   -1.758949490108e-05
    11    4.186432370356e-04
    12    4.234535162243e-04
    13   -8.498618363110e-06
    14    4.330372612629e-04
    15    5.069090159210e-01
    16   -1.721167328197e-02
    17    4.735954055802e-03
    18    1.186645481301e-03
    19    1.192257275649e-03
    20   -1.197913538675e-03
    21    1.339888563244e-03
    22    1.339597306414e-03
    23   -1.388256749326e-03
    24   -5.066231379720e-06
    25   -4.273344376204e-04
    26   -4.183115653097e-04
    27   -7.084368137784e-07
    28    4.215424074575e-04
    29    4.828538451555e-01
    30   -1.649806053229e-02
    31    4.417831613312e-03
    32    1.146373431060e-03
    33   -1.138074499260e-03
    34    1.139688153418e-03
    35    1.351035880407e-03
    36   -1.332622821551e-03
    37    1.332640871140e-03
    38    3.257288083248e-06
    39    4.431147389844e-04
    40   -4.372309774508e-04
    41    1.229842442078e-06
    42   -4.228740795210e-04
    43    4.908789507935e-01
    44   -1.672366273180e-02
    45    4.475682108747e-03
    46   -1.158738661524e-03
    47    1.163812243930e-03
    48    1.151549429127e-03
    49   -1.337276524258e-03
    50    1.331341501220e-03
    51    1.313227194842e-03
    52    2.792094161189e-06
    53   -4.403702276798e-04
    54    4.330611086444e-04
    55   -1.839992735506e-06
    56   -4.170065446374e-04
Sym=X
Ene= -15.752071
Spin=Alpha
Occup=1
     1   -5.894257445913e-01
     2    1.937294380942e-02
     3   -1.482517157482e-02
     4    1.342773224461e-03
     5    1.358977995164e-03
     6    1.219662959433e-03
     7    3.541244164914e-03
     8    3.726049544803e-03
     9    1.545276340696e-03
    10   -3.689671381911e-04
    11    3.310790838055e-05
    12    6.492562449303e-05
    13   -2.347913098272e-05
    14    6.062701332164e-04
    15    7.819429073504e-01
    16   -2.565042297122e-02
    17    1.974888464398e-02
    18    1.737521368223e-03
    19    1.751705647612e-03
    20   -1.704304587028e-03
    21    4.192141867733e-03
    22    4.364287571656e-03
    23   -3.183073585971e-03
    24    1.934455241963e-04
    25    2.155402247018e-04
    26    2.556420042565e-04
    27    2.492788832768e-05
    28   -5.226302997675e-04
    29   -1.338009341132e-01
    30    4.410872480276e-03
    31   -3.327287835008e-03
    32   -1.793898269023e-04
    33    3.963242471428e-04
    34   -3.106405263490e-04
    35    1.065226336742e-03
    36    2.152882347835e-03
    37   -9.283025584525e-04
    38    7.590330704389e-05
    39   -3.723844016896e-04
    40   -5.441700710569e-04
    41   -5.250504205278e-04
    42    1.894609632500e-05
    43   -7.354045193585e-02
    44    2.413617062969e-03
    45   -1.744239556865e-03
    46    2.581723196277e-04
    47   -4.673353883567e-05
    48   -1.885323968906e-04
    49    1.765807192027e-03
    50    1.453110462581e-03
    51   -7.136844131512e-04
    52    1.068372663597e-04
    53   -5.287067649047e-04
    54   -3.718850793024e-04
    55    5.214682555533e-04
    56    7.333813621419e-05
Sym=X
Ene= -15.752046
Spin=Alpha
Occup=1
     1   -4.942807509294e-01
     2    1.622137237817e-02
     3   -1.255364409596e-02
     4    1.008720620481e-03
     5    1.136069734797e-03
     6    1.169173157573e-03
     7    9.988201290104e-04
     8    2.900719617439e-03
     9    3.522221378358e-03
    10    3.010895828034e-04
    11    1.179926280268e-04
    12    6.367317654434e-04
    13   -3.018508923784e-04
    14   -9.133205520046e-05
    15   -2.959895664726e-01
    16    9.690460414006e-03
    17   -7.486139700767e-03
    18   -6.756131349663e-04
    19   -5.523520560623e-04
    20    7.537535653176e-04
    21   -1.711481043292e-03
    22    1.817005726647e-04
    23    2.852070004051e-03
    24    3.906222810156e-04
    25   -5.913403070065e-04
    26   -6.497254962948e-05
    27    3.051797737993e-04
    28   -2.538569804473e-04
    29    4.471914772079e-03
    30   -1.419618103911e-04
    31   -1.869821469204e-05
    32   -2.805804195984e-05
    33    6.829845863709e-05
    34    1.403474583992e-04
    35   -6.947174389411e-04
    36    1.188704896841e-03
    37    1.840663179201e-03
    38   -5.260193952382e-04
    39   -3.366950701459e-04
    40    1.916365473427e-04
    41   -8.110714147315e-05
    42   -5.339854929314e-04
    43    8.063574630253e-01
    44   -2.648398451152e-02
    45    2.025244643781e-02
    46   -1.763527891939e-03
    47    1.799177286180e-03
    48    1.835225411403e-03
    49   -3.464011971038e-03
    50    3.952228942197e-03
    51    4.596304896028e-03
    52   -1.710054399787e-04
    53    3.590943560473e-04
    54   -4.899458951552e-04
    55    7.687518147471e-05
    56    1.626248589280e-04
Sym=X
Ene= -15.752028
Spin=Alpha
Occup=1
     1   -3.727353315227e-01
     2    1.221880126055e-02
     3   -9.509924635930e-03
     4    9.119761169423e-04
     5    7.225976817809e-04
     6    8.857354490268e-04
     7    2.876605382925e-03
     8    1.856465297227e-04
     9    2.539639702253e-03
    10    1.996797768548e-04
    11    6.683440358319e-04
    12   -1.038606530473e-04
    13    4.500658130919e-04
    14   -2.175729640950e-05
    15   -1.621813492697e-01
    16    5.308083216523e-03
    17   -4.208382535779e-03
    18   -2.397743114500e-04
    19   -4.182371906603e-04
    20    4.289591794363e-04
    21    1.027653256045e-03
    22   -1.661791553160e-03
    23    1.827182419381e-03
    24    2.833594349858e-04
    25    1.577756203150e-04
    26   -5.956228982239e-04
    27   -4.298911493672e-04
    28   -2.033905347680e-04
    29    8.551026673138e-01
    30   -2.812045205958e-02
    31    2.154177325423e-02
    32    1.951775641531e-03
    33   -1.882539989950e-03
    34    1.926218835847e-03
    35    4.541004211671e-03
    36   -4.006482400139e-03
    37    4.213230505925e-03
    38    4.062608223543e-06
    39   -4.428816973578e-04
    40    2.768218233154e-04
    41   -9.484951102400e-05
    42    3.632500286713e-04
    43   -2.927543896343e-01
    44    9.611681655575e-03
    45   -7.557461931766e-03
    46    7.264321378928e-04
    47   -6.948700777711e-04
    48   -5.355872694581e-04
    49    2.606980211744e-03
    50   -2.117288055041e-03
    51    2.436406239842e-04
    52   -4.855874549309e-04
    53    4.434459237926e-05
    54   -1.834029454699e-04
    55    8.251935863996e-05
    56   -6.244652658892e-04
Sym=X
Ene= -1.667805
Spin=Alpha
Occup=1
     1    1.300430585241e-01
     2    2.620562057135e-01
     3    7.031018334452e-02
     4    7.855570592978e-02
     5    7.862071506463e-02
     6    7.846121398431e-02
     7   -2.183350004936e-02
     8   -2.203460926072e-02
     9   -2.163580647106e-02
    10   -1.836528304923e-04
    11    1.333743245575e-02
    12    1.338650850715e-02
    13   -1.044469169596e-04
    14    1.343986489591e-02
    15    1.291802300479e-01
    16    2.603998183758e-01
    17    6.925777065396e-02
    18   -7.740616079704e-02
    19   -7.790644114059e-02
    20    7.882039149545e-02
    21    2.144328040644e-02
    22    2.144329441660e-02
    23   -2.165590212787e-02
    24    1.145006106912e-04
    25   -1.338552728223e-02
    26   -1.342375180862e-02
    27   -1.022502625728e-04
    28    1.321981071919e-02
    29    1.309057747198e-01
    30    2.637089755717e-01
    31    7.142950988910e-02
    32   -7.969096589708e-02
    33    7.824358509592e-02
    34   -7.917296362448e-02
    35    2.225369428577e-02
    36   -2.202494390487e-02
    37    2.224810452258e-02
    38   -3.350492302883e-05
    39    1.355887529455e-02
    40   -1.335032448060e-02
    41    1.533557952789e-04
    42   -1.338792687274e-02
    43    1.300319765836e-01
    44    2.620336513957e-01
    45    7.033096613930e-02
    46    7.854055102473e-02
    47   -7.904154601633e-02
    48   -7.802353757042e-02
    49   -2.184062303729e-02
    50    2.184546874516e-02
    51    2.183993688860e-02
    52   -1.801147211763e-04
    53   -1.335034319040e-02
    54    1.338634532434e-02
    55   -1.038152789492e-04
    56   -1.342619944900e-02
Sym=X
Ene= -1.045909
Spin=Alpha
Occup=1
     1   -1.595433562271e-01
     2   -3.381993531987e-01
     3   -3.078479279592e-01
     4   -2.992555417033e-02
     5    1.023983494882e-01
     6   -9.446548278102e-02
     7    4.294988829028e-02
     8    8.858343666769e-03
     9    5.996679663910e-02
    10   -1.295883641333e-02
    11   -1.416169719542e-02
    12   -3.541115887649e-05
    13   -1.143607769168e-02
    14    7.102156594995e-03
    15    1.710290536224e-01
    16    3.624314217939e-01
    17    3.297608437837e-01
    18   -3.434308168493e-02
    19    9.578918167864e-02
    20    8.249759310269e-02
    21    4.653494776293e-02
    22    1.289877474863e-02
    23   -5.990963399452e-02
    24    1.138007191643e-02
    25   -1.353203025066e-02
    26    5.511762339609e-04
    27    1.125043789292e-02
    28   -5.738382880596e-03
    29   -9.353325383360e-02
    30   -1.982875583594e-01
    31   -1.809483549036e-01
    32    1.079239955581e-01
    33    1.394218385580e-01
    34    4.194339620499e-02
    35   -4.908066729138e-02
    36   -1.562793102608e-02
    37   -3.168854216923e-02
    38   -5.592208542016e-03
    39   -1.664011701781e-02
    40   -1.014134378675e-02
    41   -2.134152225212e-02
    42   -3.135887249903e-03
    43    8.340089127996e-02
    44    1.766956801686e-01
    45    1.616312418877e-01
    46    1.006919525323e-01
    47    1.429620368009e-01
    48   -5.313135963312e-02
    49   -4.500603430997e-02
    50   -1.848986712276e-02
    51    3.249993497325e-02
    52    7.458629321515e-03
    53   -1.701140172494e-02
    54   -9.228176561514e-03
    55    2.121626062363e-02
    56    4.078226844402e-03
Sym=X
Ene= -1.042470
Spin=Alpha
Occup=1
     1    4.394196577133e-02
     2    9.315429247464e-02
     3    8.555105205111e-02
     4   -1.563303370252e-01
     5    8.079666102337e-02
     6    8.015371052672e-02
     7    3.130355925901e-02
     8   -3.087999210212e-02
     9   -3.115771110529e-02
    10    1.171025947752e-02
    11   -7.815547462183e-03
    12    1.762018624084e-02
    13   -2.055497170368e-02
    14   -8.020264397376e-03
    15   -1.211460489516e-01
    16   -2.568280308151e-01
    17   -2.349501440459e-01
    18   -1.153251654926e-01
    19    1.204272720909e-01
    20   -7.436635202689e-03
    21    3.504419494375e-03
    22   -5.841309309428e-02
    23    2.911768308720e-02
    24   -4.090083879636e-04
    25   -1.091387237611e-02
    26    1.459133817195e-02
    27    2.034432293389e-02
    28   -1.251662400933e-03
    29   -1.205532032363e-01
    30   -2.555492869819e-01
    31   -2.355258231694e-01
    32   -1.157405862522e-01
    33   -6.472230455554e-03
    34    1.221502335796e-01
    35    3.219402607014e-03
    36    2.862142906972e-02
    37   -5.951166617986e-02
    38   -1.766305714665e-02
    39   -1.426817945036e-03
    40    1.450643722297e-02
    41    1.066865205662e-02
    42   -1.106969148495e-02
    43    1.977589437415e-01
    44    4.192270263761e-01
    45    3.849345487649e-01
    46   -7.470843733279e-02
    47   -4.881242407227e-02
    48   -4.670017972972e-02
    49   -2.459223693494e-02
    50    5.731310638502e-02
    51    5.632281512772e-02
    52    5.826980875897e-03
    53    1.774791574038e-03
    54    1.147485317853e-02
    55   -1.076380257867e-02
    56    1.686200709397e-03
Sym=X
Ene= -1.039081
Spin=Alpha
Occup=1
     1   -1.590647720730e-01
     2   -3.372229538806e-01
     3   -3.122752363134e-01
     4   -2.480889095652e-02
     5   -9.189146075192e-02
     6    1.051582263401e-01
     7    4.273745610338e-02
     8    6.036036405041e-02
     9    7.784126139719e-03
    10    1.639415403208e-02
    11    7.488995615541e-03
    12    4.276124887285e-04
    13    5.882177018622e-03
    14   -1.373222687827e-02
    15   -9.460317740797e-02
    16   -2.005439252576e-01
    17   -1.852310685034e-01
    18    1.062313112568e-01
    19    4.049210186279e-02
    20    1.374305780839e-01
    21   -4.936603990977e-02
    22   -3.209500269163e-02
    23   -1.514166414935e-02
    24    2.118685744386e-02
    25   -2.511140920236e-03
    26   -9.704634988564e-03
    27   -5.567435043772e-03
    28   -1.646220793546e-02
    29    1.709195968558e-01
    30    3.624693154288e-01
    31    3.358132996314e-01
    32   -3.275292125846e-02
    33    8.161367459166e-02
    34    9.941528252375e-02
    35    4.763542663074e-02
    36   -5.977876946072e-02
    37    1.221917195817e-02
    38   -1.561641952859e-02
    39   -6.050241671607e-03
    40    7.694173848912e-04
    41   -4.163272054534e-03
    42   -1.343621181614e-02
    43    8.138563789131e-02
    44    1.726336442141e-01
    45    1.590659989107e-01
    46    1.010855486473e-01
    47   -5.166327152826e-02
    48    1.462178599956e-01
    49   -4.496725994191e-02
    50    3.193666525508e-02
    51   -2.076067138300e-02
    52   -2.209509797786e-02
    53    4.373500404500e-03
    54   -9.679236527694e-03
    55    4.244118701443e-03
    56   -1.703141509054e-02
Sym=X
Ene= -0.694095
Spin=Alpha
Occup=1
     1    6.420971536581e-02
     2    1.287552902156e-01
     3    1.842458382561e-01
     4   -1.670688083318e-01
     5   -1.694395610746e-01
     6   -1.647077503886e-01
     7    8.098115589557e-02
     8    8.246271105411e-02
     9    7.951464773396e-02
    10    4.690503370842e-04
    11   -2.037282525694e-02
    12   -2.077441676755e-02
    13    2.747063802628e-04
    14   -2.118019487301e-02
    15    6.419687698979e-02
    16    1.287848557397e-01
    17    1.846431182419e-01
    18    1.653205133650e-01
    19    1.662015021267e-01
    20   -1.661445038092e-01
    21   -8.003537563291e-02
    22   -8.027274150956e-02
    23    8.010294714751e-02
    24   -8.734560827965e-05
    25    2.060938954073e-02
    26    2.072429025474e-02
    27    9.616670633973e-05
    28   -2.073204634572e-02
    29    6.420766298799e-02
    30    1.286900328224e-01
    31    1.837676766997e-01
    32    1.688418782712e-01
    33   -1.679712535604e-01
    34    1.679798551036e-01
    35   -8.197009964515e-02
    36    8.187043900304e-02
    37   -8.173954002744e-02
    38    3.321339388582e-05
    39   -2.083428949881e-02
    40    2.083464211574e-02
    41   -1.319655244093e-04
    42    2.094940050529e-02
    43    6.420787001634e-02
    44    1.287478546264e-01
    45    1.842361806458e-01
    46   -1.670457354128e-01
    47    1.679454409165e-01
    48    1.662024205685e-01
    49    8.097193713543e-02
    50   -8.122589994426e-02
    51   -8.075791771815e-02
    52    1.638183222453e-04
    53    2.066336098185e-02
    54   -2.078153336554e-02
    55    9.808210611166e-05
    56    2.089297338312e-02
Sym=X
Ene= -0.578091
Spin=Alpha
Occup=1
     1   -7.210311357118e-02
     2   -1.673067908547e-01
     3   -1.257256637117e-01
     4    4.158038233143e-02
     5    3.174610466768e-02
     6    2.958346768431e-01
     7   -4.840856989706e-02
     8   -4.329419758080e-02
     9   -1.856197553867e-01
    10    2.397053101191e-02
    11    8.171592776642e-03
    12    7.409780950488e-03
    13    3.811058180366e-04
    14   -4.082071748669e-03
    15    1.183415559747e-01
    16    2.748973912759e-01
    17    2.060758535639e-01
    18    1.656391320526e-01
    19    1.695536158561e-01
    20   -2.608412778462e-01
    21   -1.315186349746e-01
    22   -1.346182445624e-01
    23    1.834428853170e-01
    24   -8.396985861366e-03
    25    7.156060565582e-03
    26    7.713115022681e-03
    27   -5.757219632583e-05
    28   -3.296754117460e-03
    29   -2.375705289173e-02
    30   -5.504473982670e-02
    31   -4.160368426372e-02
    32   -2.459962927995e-01
    33   -1.106432434882e-01
    34    1.589009629279e-02
    35    1.416325571794e-01
    36    5.119464747066e-02
    37   -4.164716013878e-04
    38   -7.848602094901e-03
    39    8.017861778024e-03
    40    8.323076490896e-03
    41    2.829276644769e-02
    42   -3.473003660590e-03
    43   -2.196452442803e-02
    44   -5.088701594694e-02
    45   -3.878994805565e-02
    46   -1.055217155183e-01
    47   -2.347195847324e-01
    48    2.241392557636e-02
    49    4.888314928852e-02
    50    1.336874064568e-01
    51   -4.497599842368e-03
    52   -8.068514043114e-03
    53    7.705178331630e-03
    54    6.955977093708e-03
    55   -2.790296193924e-02
    56   -3.595007241155e-03
Sym=X
Ene= -0.576976
Spin=Alpha
Occup=1
     1   -7.051876561701e-02
     2   -1.638220668480e-01
     3   -1.221595676627e-01
     4    2.944263285909e-01
     5    2.869793218877e-02
     6    3.327341433832e-02
     7   -1.849441432626e-01
     8   -4.138798236587e-02
     9   -4.343797260919e-02
    10   -1.251481851232e-02
    11    7.892129166229e-03
    12   -4.335145871642e-03
    13    2.086239892214e-02
    14    7.090379391174e-03
    15   -2.609483370986e-02
    16   -6.061749353344e-02
    17   -4.553145730324e-02
    18    1.306622648203e-02
    19   -2.368505684990e-01
    20   -9.558854748359e-02
    21    2.572704787370e-03
    22    1.363685274336e-01
    23    4.205364844094e-02
    24   -1.997612154151e-02
    25    6.974707536827e-03
    26   -3.864408361956e-03
    27   -2.045143678291e-02
    28    6.983460175154e-03
    29   -2.189230446572e-02
    30   -5.085919915899e-02
    31   -3.756963569038e-02
    32    2.257645607406e-02
    33   -1.133702990368e-01
    34   -2.501935539818e-01
    35   -4.238749347558e-03
    36    5.351133926946e-02
    37    1.444169808158e-01
    38    2.876800165830e-02
    39    8.418587717408e-03
    40   -3.669964496109e-03
    41    6.698874859399e-03
    42    8.727492182213e-03
    43    1.184963350921e-01
    44    2.753094034521e-01
    45    2.051561509474e-01
    46   -2.560742777455e-01
    47    1.818948279658e-01
    48    1.606350305604e-01
    49    1.815960765972e-01
    50   -1.425189819443e-01
    51   -1.291247008581e-01
    52    4.826474647400e-03
    53    6.377756448314e-03
    54   -3.480154692634e-03
    55   -6.344516287916e-03
    56    8.045576517877e-03
Sym=X
Ene= -0.575797
Spin=Alpha
Occup=1
     1   -7.041184291975e-02
     2   -1.638033527815e-01
     3   -1.209619285838e-01
     4    2.537837896632e-02
     5    2.928387946296e-01
     6    3.287933698157e-02
     7   -3.976426605635e-02
     8   -1.846874399454e-01
     9   -4.359186378909e-02
    10   -1.199390888690e-02
    11   -4.325071686318e-03
    12    7.496684900137e-03
    13   -2.123777908236e-02
    14    6.882996608665e-03
    15   -2.370674933259e-02
    16   -5.522004040535e-02
    17   -4.059770811537e-02
    18   -2.407355080965e-01
    19    1.871590318278e-02
    20   -1.016146894151e-01
    21    1.388639148835e-01
    22   -9.557051541380e-04
    23    4.631746596454e-02
    24   -1.992824089781e-02
    25   -4.000186617706e-03
    26    7.470712209709e-03
    27    2.086372288155e-02
    28    7.455277857278e-03
    29    1.182256551560e-01
    30    2.747410313890e-01
    31    2.033801772597e-01
    32    1.748525009637e-01
    33   -2.544858926879e-01
    34    1.701750980452e-01
    35   -1.388795060964e-01
    36    1.814609963868e-01
    37   -1.354241194751e-01
    38    3.973943410010e-03
    39   -3.433360228841e-03
    40    6.809201142876e-03
    41    6.791296611231e-03
    42    7.356351065913e-03
    43   -2.462025688496e-02
    44   -5.735441669606e-02
    45   -4.178795852883e-02
    46   -1.069119572199e-01
    47    1.463265222084e-02
    48   -2.502411218150e-01
    49    4.896558321415e-02
    50    1.541654945114e-03
    51    1.455098539733e-01
    52    2.828659743370e-02
    53   -3.896526360788e-03
    54    8.371269067887e-03
    55   -7.086707546491e-03
    56    8.073134337072e-03
Sym=X
Ene= -0.549742
Spin=Alpha
Occup=1
     1    2.080095948102e-03
     2    5.464354608197e-03
     3    1.287246002653e-03
     4    1.859421339141e-01
     5   -2.582565452298e-01
     6    6.601352782819e-02
     7   -1.221713767674e-01
     8    1.724217688370e-01
     9   -4.264027224967e-02
    10    2.423903353856e-03
    11    2.599444946213e-02
    12   -1.917033976823e-02
    13    9.076821938571e-03
    14   -6.965665244183e-03
    15   -1.232769845342e-03
    16   -2.726168167184e-03
    17   -2.021236776656e-03
    18   -1.966855267391e-01
    19    2.636096020808e-01
    20    7.489270415174e-02
    21    1.302741076488e-01
    22   -1.737491317453e-01
    23   -4.969162124764e-02
    24    3.043039982243e-03
    25   -2.650775242369e-02
    26    1.931778603594e-02
    27    1.013124918046e-02
    28   -7.108013015483e-03
    29    1.171812112596e-03
    30    3.224696115870e-03
    31    3.327832391702e-04
    32   -1.869285146643e-01
    33   -2.560510916325e-01
    34   -6.204251810494e-02
    35    1.233852447754e-01
    36    1.709469613196e-01
    37    4.058211366357e-02
    38    1.656298229531e-03
    39    2.586618416352e-02
    40    1.945252668733e-02
    41    8.662701474448e-03
    42    7.145589244748e-03
    43   -2.241959266666e-03
    44   -5.199152944837e-03
    45   -3.119786000428e-03
    46    1.975935632777e-01
    47    2.598008771697e-01
    48   -7.626762056491e-02
    49   -1.315087449992e-01
    50   -1.712084235052e-01
    51    5.119882522142e-02
    52    2.939379408809e-03
    53   -2.651392889214e-02
    54   -1.932113308474e-02
    55    1.007048797849e-02
    56    6.797627848914e-03
Sym=X
Ene= -0.544431
Spin=Alpha
Occup=1
     1    1.754291769025e-03
     2    4.712744264081e-03
     3    7.088602034761e-04
     4   -1.940713147569e-01
     5   -7.282073847622e-02
     6    2.625295210811e-01
     7    1.309396984268e-01
     8    4.981153137345e-02
     9   -1.745927924332e-01
    10    9.462814117165e-03
    11    7.115429545668e-03
    12    1.926267377743e-02
    13   -2.499052195799e-03
    14   -2.645022788187e-02
    15    1.003634611178e-03
    16    2.835197833938e-03
    17    8.221094366325e-05
    18    1.938810819782e-01
    19    7.629722957455e-02
    20    2.642186221442e-01
    21   -1.302085990925e-01
    22   -5.160947722895e-02
    23   -1.756960935398e-01
    24    1.015783448703e-02
    25   -6.884940915067e-03
    26   -1.897743915856e-02
    27   -2.140028929015e-03
    28   -2.657287770753e-02
    29   -1.135064715464e-03
    30   -2.489321973211e-03
    31   -1.884072950460e-03
    32    1.849864502694e-01
    33   -6.536013466731e-02
    34   -2.576180179733e-01
    35   -1.238489719594e-01
    36    4.366728646197e-02
    37    1.732128237846e-01
    38    8.413103840043e-03
    39    6.955335826502e-03
    40   -1.912784226583e-02
    41   -2.530382329961e-03
    42    2.604063879350e-02
    43   -1.816120108530e-03
    44   -4.207177781243e-03
    45   -2.412252003106e-03
    46   -1.847441003355e-01
    47    6.406997193326e-02
    48   -2.604692795384e-01
    49    1.231368012791e-01
    50   -4.229111612428e-02
    51    1.750948652648e-01
    52    8.470713764538e-03
    53   -7.242160495613e-03
    54    1.909152024713e-02
    55   -2.521386496123e-03
    56    2.602684051471e-02
Sym=X
Ene= 0.184002
Spin=Alpha
Occup=0
     1   -3.962284875439e-03
     2   -9.408606437633e-03
     3   -2.996311638525e-02
     4   -2.576641141411e-01
     5   -1.054942476034e-01
     6    3.432981139883e-01
     7    3.767060268044e-01
     8    1.572052748190e-01
     9   -4.909189477478e-01
    10    3.993403367642e-04
    11   -3.230124295355e-03
    12   -7.585823151147e-03
    13   -8.048206865145e-05
    14    9.750323951394e-03
    15    3.308065562263e-03
    16    7.773562937701e-03
    17    2.587501922064e-02
    18   -1.805487025317e-01
    19   -1.851898360671e-01
    20   -3.419759653155e-01
    21    2.656763949403e-01
    22    2.714111524377e-01
    23    4.901152992802e-01
    24   -3.302201034091e-05
    25   -5.334752062590e-03
    26   -5.428548538211e-03
    27   -4.028008868412e-05
    28   -1.006843106794e-02
    29    7.100341862573e-04
    30    1.698838725917e-03
    31    5.191626113361e-03
    32    1.681279389199e-01
    33    9.655403448997e-02
    34   -7.690613252133e-02
    35   -2.355892513467e-01
    36   -1.343124469706e-01
    37    1.113753659818e-01
    38   -9.732393525919e-05
    39    2.073194469171e-03
    40    3.923882468766e-03
    41   -4.910352614486e-04
    42   -1.994266976610e-03
    43   -6.704757754183e-05
    44   -1.089146730339e-04
    45   -1.111830383798e-03
    46    2.456918825827e-01
    47    1.743315375287e-01
    48    7.191441557303e-02
    49   -3.468988043062e-01
    50   -2.459099157665e-01
    51   -1.025251107658e-01
    52   -2.113050606284e-04
    53    4.203246444490e-03
    54    6.216090537010e-03
    55    6.034357575822e-04
    56    2.026818356364e-03
Sym=X
Ene= 0.186040
Spin=Alpha
Occup=0
     1    7.342012728163e-04
     2    1.740578304433e-03
     3    5.603856098872e-03
     4   -6.893761193781e-03
     5    4.609770052535e-02
     6   -3.551480115861e-02
     7    7.629943171266e-03
     8   -6.664981693966e-02
     9    5.097833100619e-02
    10   -2.312175619563e-04
    11    1.068611052333e-03
    12    3.402766715283e-04
    13    2.885078448093e-04
    14   -1.214643203022e-03
    15   -5.241560222940e-04
    16   -1.099780828188e-03
    17   -5.680120842986e-03
    18   -2.627678699461e-01
    19    3.022669905765e-01
    20    3.554608827800e-02
    21    3.761897679887e-01
    22   -4.360961622483e-01
    23   -5.088313757057e-02
    24    1.152168535126e-05
    25    8.340712183802e-03
    26   -7.134645478262e-03
    27    1.668602934024e-04
    28    1.091864409398e-03
    29   -5.323574203711e-04
    30   -1.120229483312e-03
    31   -5.815454880101e-03
    32    2.657684265225e-01
    33   -4.613728590183e-02
    34   -3.078121766145e-01
    35   -3.859609939270e-01
    36    6.694087543185e-02
    37    4.436001918907e-01
    38    4.878238814030e-04
    39   -1.196713120887e-03
    40    7.712750814956e-03
    41   -1.930385594902e-04
    42   -8.800389375344e-03
    43    3.221635343055e-04
    44    4.788892667216e-04
    45    5.891602927062e-03
    46    1.054253852915e-02
    47   -3.011193665393e-01
    48    3.088723538566e-01
    49   -1.771720973927e-02
    50    4.349574655198e-01
    51   -4.446507730347e-01
    52   -2.601855279546e-04
    53   -8.398005767362e-03
    54    4.329449276738e-04
    55   -3.043305724580e-04
    56    8.760128080877e-03
Sym=X
Ene= 0.187874
Spin=Alpha
Occup=0
     1   -3.893379182607e-03
     2   -9.217451310786e-03
     3   -2.995733523956e-02
     4    2.514982597766e-01
     5   -3.482843781083e-01
     6    7.719009760778e-02
     7   -3.573295941763e-01
     8    5.064959266352e-01
     9   -1.061934394925e-01
    10    5.710570973504e-05
    11   -9.690046292444e-03
    12    6.761114093624e-03
    13    3.628386347960e-04
    14    1.912061822960e-03
    15    8.419009778691e-04
    16    2.056595407348e-03
    17    5.733047448066e-03
    18   -1.776094542053e-01
    19    8.652158921871e-02
    20   -8.543101751883e-02
    21    2.626604079766e-01
    22   -1.241481508082e-01
    23    1.277681931828e-01
    24    2.675545998726e-04
    25    2.578308180068e-03
    26   -5.761775757165e-03