[Molden Format]
[Title]
 Molden file created by orca_2mkl for BaseName=/home/vladimir/git/molden2qmc/test/N4/ORCA/RHF/TZVP_QChem/./N4

[Atoms] AU
N    1   7         -1.2141710477         0.0000000000        -1.1929116595 
N    2   7          1.3902700165         0.8023365622        -0.5821231084 
N    3   7         -0.5808226514         0.8023365622         1.3773975481 
N    4   7          0.4047236826        -1.6046731244         0.3976372198 
[GTO]
  1 0
s   6 1.0 
    19730.8006470000         0.6956035199
     2957.8958745000         1.2986099328
      673.2213359500         2.2190880635
      190.6824949400         3.4636607549
       62.2954418980         4.6967555531
       22.6541611820         4.9522510945
s   2 1.0 
        8.9791477428         2.3880677979
        3.6863002370         0.7337878750
s   1 1.0 
        0.8466007680         0.6290267082
s   1 1.0 
        0.3364713377         0.3148626514
s   1 1.0 
        0.1364765367         0.1600308040
p   4 1.0 
       49.2003805100         2.1264813968
       11.3467905370         2.3279367185
        3.4273972411         2.0485729192
        1.1785525134         1.2607319854
p   1 1.0 
        0.4164220497         0.4768230427
p   1 1.0 
        0.1426082601         0.1249168256
d   1 1.0 
        1.6540000000         6.8771297418
d   1 1.0 
        0.4690000000         0.7577440909
f   1 1.0 
        1.0930000000         6.9645882147

  2 0
s   6 1.0 
    19730.8006470000         0.6956035199
     2957.8958745000         1.2986099328
      673.2213359500         2.2190880635
      190.6824949400         3.4636607549
       62.2954418980         4.6967555531
       22.6541611820         4.9522510945
s   2 1.0 
        8.9791477428         2.3880677979
        3.6863002370         0.7337878750
s   1 1.0 
        0.8466007680         0.6290267082
s   1 1.0 
        0.3364713377         0.3148626514
s   1 1.0 
        0.1364765367         0.1600308040
p   4 1.0 
       49.2003805100         2.1264813968
       11.3467905370         2.3279367185
        3.4273972411         2.0485729192
        1.1785525134         1.2607319854
p   1 1.0 
        0.4164220497         0.4768230427
p   1 1.0 
        0.1426082601         0.1249168256
d   1 1.0 
        1.6540000000         6.8771297418
d   1 1.0 
        0.4690000000         0.7577440909
f   1 1.0 
        1.0930000000         6.9645882147

  3 0
s   6 1.0 
    19730.8006470000         0.6956035199
     2957.8958745000         1.2986099328
      673.2213359500         2.2190880635
      190.6824949400         3.4636607549
       62.2954418980         4.6967555531
       22.6541611820         4.9522510945
s   2 1.0 
        8.9791477428         2.3880677979
        3.6863002370         0.7337878750
s   1 1.0 
        0.8466007680         0.6290267082
s   1 1.0 
        0.3364713377         0.3148626514
s   1 1.0 
        0.1364765367         0.1600308040
p   4 1.0 
       49.2003805100         2.1264813968
       11.3467905370         2.3279367185
        3.4273972411         2.0485729192
        1.1785525134         1.2607319854
p   1 1.0 
        0.4164220497         0.4768230427
p   1 1.0 
        0.1426082601         0.1249168256
d   1 1.0 
        1.6540000000         6.8771297418
d   1 1.0 
        0.4690000000         0.7577440909
f   1 1.0 
        1.0930000000         6.9645882147

  4 0
s   6 1.0 
    19730.8006470000         0.6956035199
     2957.8958745000         1.2986099328
      673.2213359500         2.2190880635
      190.6824949400         3.4636607549
       62.2954418980         4.6967555531
       22.6541611820         4.9522510945
s   2 1.0 
        8.9791477428         2.3880677979
        3.6863002370         0.7337878750
s   1 1.0 
        0.8466007680         0.6290267082
s   1 1.0 
        0.3364713377         0.3148626514
s   1 1.0 
        0.1364765367         0.1600308040
p   4 1.0 
       49.2003805100         2.1264813968
       11.3467905370         2.3279367185
        3.4273972411         2.0485729192
        1.1785525134         1.2607319854
p   1 1.0 
        0.4164220497         0.4768230427
p   1 1.0 
        0.1426082601         0.1249168256
d   1 1.0 
        1.6540000000         6.8771297418
d   1 1.0 
        0.4690000000         0.7577440909
f   1 1.0 
        1.0930000000         6.9645882147

[5D]
[9G]
[MO]
 Sym=     1a
 Ene= -1.57508684079122E+01
 Spin= Alpha
 Occup= 2.000000
  1      -0.226352432235
  2      -0.317568328845
  3      -0.009884052059
  4       0.002903354121
  5      -0.000605481470
  6      -0.001409540087
  7      -0.000000325496
  8      -0.001408734048
  9       0.000576178533
 10      -0.000005506497
 11       0.000495294165
 12      -0.000198907659
 13       0.000000299831
 14      -0.000193504521
 15      -0.000073617221
 16      -0.000239437623
 17      -0.000001944946
 18      -0.000117182113
 19       0.000001328197
 20       0.000036496041
 21       0.000223258068
 22      -0.000009099732
 23       0.000126869558
 24       0.000004462652
 25      -0.000009312453
 26       0.000019167605
 27       0.000023980178
 28       0.000024735058
 29      -0.000031722154
 30      -0.000011156903
 31      -0.000031806147
 32      -0.215704947805
 33      -0.302632935069
 34      -0.009309989170
 35       0.002432244347
 36      -0.000553872396
 37       0.001529839747
 38       0.000887001096
 39      -0.000650329525
 40      -0.000392771786
 41      -0.000263546238
 42       0.000154767661
 43       0.000222613883
 44       0.000131787299
 45      -0.000093673823
 46       0.000084164966
 47       0.000131166025
 48       0.000074150686
 49      -0.000101685172
 50      -0.000175031286
 51      -0.000064582162
 52      -0.000074418955
 53      -0.000056102723
 54       0.000052311944
 55       0.000124143139
 56      -0.000024341182
 57      -0.000016752518
 58       0.000033401303
 59      -0.000015952300
 60       0.000012734938
 61       0.000010618017
 62       0.000020962962
 63      -0.232916093658
 64      -0.326774675706
 65      -0.010248244716
 66       0.003212489807
 67      -0.000641745164
 68      -0.000697257193
 69       0.000973600408
 70       0.001680426084
 71       0.000346523196
 72      -0.000420022081
 73      -0.000756306161
 74      -0.000096462086
 75       0.000130415420
 76       0.000228563423
 77      -0.000141314070
 78       0.000132327194
 79      -0.000189803887
 80       0.000027798022
 81       0.000078407161
 82       0.000151999256
 83      -0.000166660096
 84       0.000200483164
 85      -0.000018154988
 86      -0.000085621046
 87      -0.000001626598
 88       0.000011374995
 89      -0.000040133923
 90      -0.000027304524
 91       0.000017533639
 92       0.000029809185
 93      -0.000027353670
 94      -0.223108646080
 95      -0.313017767119
 96      -0.009715506893
 97       0.002768337372
 98      -0.000592391054
 99       0.000466327882
100      -0.001849965887
101       0.000459056835
102      -0.000112984286
103       0.000647783783
104      -0.000199104207
105       0.000062260221
106      -0.000261878950
107       0.000068280785
108       0.000114065715
109      -0.000026681105
110       0.000101553597
111       0.000197241528
112       0.000109712796
113      -0.000098762830
114       0.000019581972
115      -0.000115150546
116      -0.000172400388
117      -0.000061381391
118       0.000042207240
119      -0.000027827175
120      -0.000011988049
121      -0.000000155986
122      -0.000013526371
123      -0.000020545037
124       0.000017532784
 Sym=     1a
 Ene= -1.57499543584987E+01
 Spin= Alpha
 Occup= 2.000000
  1      -0.124751032496
  2      -0.175009972575
  3      -0.006452268683
  4       0.005311045413
  5      -0.000408526807
  6      -0.000869812311
  7       0.000056058290
  8      -0.000778025231
  9       0.000998445362
 10       0.001391148164
 11       0.003154329905
 12       0.000058812047
 13      -0.000036272884
 14       0.000003661847
 15       0.000085802554
 16      -0.000101375543
 17       0.000096637499
 18      -0.000075687400
 19       0.000048466829
 20       0.001161357251
 21       0.000633359930
 22       0.000834273842
 23       0.000133046902
 24       0.000380222869
 25       0.000176683985
 26       0.000165093100
 27       0.000158357582
 28       0.000012340232
 29       0.000134201155
 30      -0.000001912179
 31      -0.000060604916
 32      -0.069529769531
 33      -0.097541654109
 34      -0.003571948880
 35       0.002857693503
 36      -0.000241825900
 37       0.000513552901
 38       0.000366146925
 39      -0.000167790764
 40      -0.001575329012
 41       0.000801643911
 42       0.001933915060
 43      -0.000001883876
 44      -0.000047413804
 45      -0.000027746956
 46       0.000092438324
 47      -0.000080845195
 48       0.000046156274
 49       0.000041879227
 50      -0.000103389224
 51       0.000478003564
 52      -0.001153548154
 53       0.000150605295
 54       0.000701162500
 55      -0.000223091982
 56      -0.000049384532
 57      -0.000183083196
 58      -0.000043984262
 59       0.000225178872
 60       0.000007758130
 61       0.000138441578
 62      -0.000002746985
 63       0.376509475358
 64       0.528187691722
 65       0.019653657619
 66      -0.016396888353
 67       0.001325899283
 68       0.001210433568
 69      -0.001660279829
 70      -0.002896462964
 71      -0.002929838470
 72       0.004656453145
 73       0.007207052413
 74      -0.000043640219
 75       0.000048631742
 76       0.000102572358
 77       0.000165662550
 78      -0.000157546528
 79       0.000189474420
 80      -0.000006898139
 81      -0.000071807630
 82      -0.001224571064
 83       0.001185771312
 84      -0.001923054819
 85       0.000431516464
 86       0.000864786063
 87       0.000002026599
 88      -0.000065954327
 89       0.000187437310
 90      -0.000021303905
 91      -0.000133546106
 92      -0.000119439846
 93       0.000061572151
 94      -0.199271638572
 95      -0.279550403375
 96      -0.010324210899
 97       0.008411745918
 98      -0.000715428880
 99       0.000429683104
100      -0.001748630759
101       0.000509088172
102      -0.001433816700
103       0.004718356781
104       0.000697117137
105      -0.000002128539
106       0.000034898279
107      -0.000050515166
108       0.000043793298
109      -0.000064811139
110       0.000182335106
111       0.000083348296
112       0.000018872412
113      -0.000763784857
114      -0.000296932465
115       0.000474934999
116      -0.001302521418
117      -0.000922098748
118      -0.000080063981
119       0.000028567776
120      -0.000137943772
121      -0.000107097351
122      -0.000116483684
123      -0.000189280515
124       0.000119641742
 Sym=     1a
 Ene= -1.57499428625599E+01
 Spin= Alpha
 Occup= 2.000000
  1       0.366345313428
  2       0.513929577278
  3       0.019068269974
  4      -0.015752227198
  5       0.001290435663
  6       0.002434749865
  7       0.000023516606
  8       0.002439027965
  9      -0.006391861486
 10       0.000589267491
 11      -0.005898035147
 12      -0.000070827663
 13      -0.000014833289
 14      -0.000085383416
 15       0.000102611713
 16       0.000249234417
 17       0.000036632763
 18       0.000124862056
 19       0.000024902440
 20      -0.000411845404
 21      -0.002340724470
 22       0.000296195836
 23      -0.001157503503
 24       0.000218891484
 25       0.000098897965
 26      -0.000130662571
 27      -0.000008229357
 28      -0.000169823240
 29       0.000130898974
 30       0.000061074623
 31       0.000036068911
 32      -0.128017843743
 33      -0.179590327658
 34      -0.006623523496
 35       0.005314627660
 36      -0.000477423567
 37       0.000933283888
 38       0.000601503860
 39      -0.000466356984
 40      -0.003471812005
 41      -0.000464637153
 42      -0.000372836613
 43       0.000011624161
 44      -0.000033669012
 45       0.000038093971
 46       0.000005486056
 47       0.000127293485
 48       0.000091374809
 49       0.000076574399
 50      -0.000068207926
 51      -0.000500606174
 52       0.000224115152
 53       0.000263551437
 54       0.001323300676
 55       0.000611147613
 56       0.000073097016
 57       0.000119785722
 58       0.000050177092
 59      -0.000001777411
 60      -0.000088017162
 61       0.000196490870
 62       0.000191484005
 63      -0.021553257783
 64      -0.030237473807
 65      -0.001106938605
 66       0.000941093052
 67      -0.000042496714
 68      -0.000137513540
 69       0.000119211435
 70       0.000117543677
 71      -0.001581109364
 72       0.000391836660
 73      -0.001531578902
 74       0.000050754920
 75      -0.000022062117
 76       0.000011411619
 77       0.000107248419
 78       0.000110073518
 79       0.000003962031
 80       0.000017187887
 81       0.000064635323
 82       0.001049876966
 83       0.000801903387
 84       0.000244215115
 85       0.000145675971
 86       0.000447456586
 87      -0.000225036875
 88      -0.000107511938
 89      -0.000158395753
 90       0.000028051009
 91      -0.000123105209
 92      -0.000064027868
 93       0.000005128316
 94      -0.225399298262
 95      -0.316203324238
 96      -0.011702618193
 97       0.009597975481
 98      -0.000792213172
 99       0.000446899422
100      -0.002018848920
101       0.000461753652
102      -0.002656277976
103       0.004411837876
104      -0.002118699471
105       0.000021519828
106       0.000073037980
107       0.000004749212
108       0.000106543545
109       0.000060037135
110       0.000029404033
111       0.000189148254
112      -0.000009682699
113      -0.000414325828
114       0.000834495434
115      -0.000944234996
116      -0.000676683040
117      -0.001290994858
118       0.000133155634
119      -0.000043378664
120       0.000022384992
121       0.000022227852
122       0.000192607172
123      -0.000193916502
124      -0.000049119874
 Sym=     1a
 Ene= -1.57499182187506E+01
 Spin= Alpha
 Occup= 2.000000
  1       0.028998071781
  2       0.040678164044
  3       0.001539813583
  4      -0.001274392861
  5       0.000129982537
  6       0.000159061354
  7      -0.000057987825
  8       0.000236461585
  9      -0.001520047005
 10      -0.001511619325
 11       0.000537281283
 12       0.000021744731
 13       0.000033630990
 14      -0.000023877084
 15       0.000082892821
 16       0.000040167646
 17      -0.000053331034
 18      -0.000070472591
 19      -0.000103949215
 20       0.000584723836
 21      -0.000007877372
 22      -0.000433277895
 23      -0.000792892941
 24      -0.000892318837
 25       0.000069644539
 26       0.000146793554
 27      -0.000010978048
 28      -0.000084904202
 29      -0.000162873423
 30       0.000139686911
 31       0.000170297137
 32      -0.366194376620
 33      -0.513720003700
 34      -0.018973170070
 35       0.015482958631
 36      -0.001266446837
 37       0.002804016955
 38       0.001592741776
 39      -0.001170622302
 40      -0.006478813713
 41      -0.004612022814
 42       0.003183277025
 43      -0.000097802577
 44      -0.000034812521
 45       0.000032296742
 46       0.000090840663
 47       0.000136177121
 48       0.000055974918
 49      -0.000163150880
 50      -0.000184813183
 51      -0.000885030209
 52      -0.001331914723
 53      -0.000958892764
 54       0.000541645425
 55       0.001799372741
 56      -0.000163343381
 57      -0.000011603808
 58       0.000098487078
 59      -0.000012216981
 60       0.000162638112
 61      -0.000055894500
 62       0.000122277076
 63       0.073296034061
 64       0.102822902052
 65       0.003853760857
 66      -0.003278086843
 67       0.000249505041
 68       0.000195524984
 69      -0.000395090934
 70      -0.000542708691
 71      -0.001647816071
 72      -0.000874726406
 73       0.002054965473
 74       0.000014288287
 75       0.000052617339
 76       0.000015068427
 77      -0.000015547936
 78       0.000059360282
 79       0.000101566429
 80      -0.000108283857
 81      -0.000061810975
 82      -0.000635582770
 83       0.001003062170
 84       0.000148309311
 85      -0.000829401591
 86      -0.000259390009
 87       0.000049449549
 88      -0.000183729807
 89       0.000028801158
 90       0.000229872637
 91       0.000023519331
 92       0.000120102737
 93      -0.000044687127
 94       0.248105955209
 95       0.348056507980
 96       0.012937719271
 97      -0.010761595763
 98       0.000850208657
 99      -0.000611673066
100       0.002193408911
101      -0.000524408866
102      -0.000087926723
103      -0.005837905760
104       0.001985799389
105       0.000059551999
106      -0.000077709804
107       0.000007672046
108      -0.000072795733
109       0.000049826980
110      -0.000019540347
111      -0.000119862821
112      -0.000181652960
113       0.000862236088
114       0.000095473700
115       0.001173265632
116       0.001484684756
117      -0.000185410240
118      -0.000166522076
119       0.000045637068
120       0.000077837727
121      -0.000148040128
122       0.000068988676
123      -0.000088747595
124      -0.000150555896
 Sym=     1a
 Ene= -1.65309065307103E+00
 Spin= Alpha
 Occup= 2.000000
  1      -0.045753168991
  2      -0.105596204295
  3       0.149058294455
  4       0.178961935211
  5       0.018322719894
  6       0.059622011746
  7       0.000010051344
  8       0.060086848221
  9       0.051056660897
 10       0.000003619185
 11       0.051181840874
 12       0.003265602707
 13       0.000000855295
 14       0.003265562084
 15       0.002054882994
 16       0.006852611923
 17       0.000051076552
 18       0.003381238396
 19      -0.000047701960
 20       0.004521670351
 21       0.015647052784
 22       0.000076745204
 23       0.007819757292
 24      -0.000074207460
 25      -0.000541366782
 26       0.002055568200
 27       0.001023970307
 28       0.002145365346
 29      -0.001209445538
 30      -0.000870286650
 31      -0.001183926674
 32      -0.045444560013
 33      -0.104884855941
 34       0.148173395841
 35       0.177576872168
 36       0.018422661905
 37      -0.068231010991
 38      -0.039555694623
 39       0.029195663220
 40      -0.058172467767
 41      -0.033736471560
 42       0.024793939235
 43      -0.003804093170
 44      -0.002169094844
 45       0.001606648952
 46      -0.002541108553
 47      -0.003881106181
 48      -0.002224702418
 49       0.002961358565
 50       0.005187692783
 51      -0.005787807908
 52      -0.008717902529
 53      -0.005009757716
 54       0.006752499048
 55       0.011800534424
 56      -0.001848992984
 57      -0.000324126077
 58       0.001595391322
 59       0.000080835696
 60       0.001518507486
 61       0.000598897036
 62       0.002222619935
 63      -0.046061413522
 64      -0.106306300421
 65       0.149928138426
 66       0.180389084507
 67       0.018207339861
 68       0.028624081323
 69      -0.040245075276
 70      -0.069402831491
 71       0.024601385819
 72      -0.034434627063
 73      -0.059403591880
 74       0.001547571751
 75      -0.002183260327
 76      -0.003701920730
 77       0.003941914867
 78      -0.003727825741
 79       0.005315790647
 80      -0.000725057735
 81      -0.002187266208
 82       0.009025553769
 83      -0.008667079010
 84       0.012194853679
 85      -0.001666921701
 86      -0.005069630142
 87      -0.000270890600
 88       0.001094975945
 89      -0.002659643588
 90      -0.000625649037
 91       0.001488294285
 92       0.001413813731
 93      -0.000971814504
 94      -0.045748990994
 95      -0.105586315692
 96       0.149039181776
 97       0.178964965243
 98       0.018315427895
 99      -0.020217211885
100       0.079791773126
101      -0.019673164406
102      -0.017207128779
103       0.068161203527
104      -0.016871455768
105      -0.001136635191
106       0.004352247275
107      -0.001038670058
108      -0.003342468228
109       0.000760375065
110      -0.003000458724
111      -0.005681630653
112      -0.003087687454
113      -0.007592889455
114       0.001738220401
115      -0.006886260819
116      -0.013002923277
117      -0.007022207487
118       0.002119937799
119      -0.000844548651
120      -0.001324956605
121       0.000490450787
122      -0.000125449845
123      -0.001996441824
124       0.001607088466
 Sym=     1a
 Ene= -1.04440346675158E+00
 Spin= Alpha
 Occup= 2.000000
  1      -0.056238805943
  2      -0.131905130939
  3       0.194250513562
  4       0.311925153382
  5       0.096449558718
  6      -0.069634415625
  7       0.018939747926
  8       0.061279081830
  9      -0.035263100524
 10       0.015834033297
 11       0.075389421114
 12      -0.008082077405
 13       0.002752941836
 14       0.011316723144
 15       0.008046006107
 16      -0.000739771324
 17       0.002532635312
 18      -0.004723327082
 19       0.000175756589
 20       0.017154780053
 21       0.009145730779
 22       0.004829244449
 23      -0.002928782041
 24      -0.000197071477
 25       0.002437554484
 26       0.002591386509
 27       0.001571679631
 28      -0.000658439400
 29      -0.000096483542
 30       0.001013997899
 31      -0.000449708667
 32       0.060191308542
 33       0.141169014345
 34      -0.207959847197
 35      -0.333827836803
 36      -0.103422204693
 37      -0.055769339260
 38       0.060289810290
 39      -0.029372864031
 40      -0.018154816979
 41       0.067840809057
 42      -0.037312394518
 43      -0.005451581708
 44       0.010572332970
 45      -0.005611778923
 46      -0.000990367588
 47       0.000905242035
 48       0.003722627870
 49       0.007835053859
 50      -0.001541580117
 51       0.002918329377
 52       0.008107521438
 53       0.010329583667
 54       0.009002583947
 55      -0.011006323211
 56       0.001377603035
 57       0.001218499203
 58      -0.000745227123
 59       0.001380345554
 60      -0.001709731358
 61       0.002373849319
 62       0.000491690845
 63      -0.033172639437
 64      -0.077806380284
 65       0.114497316227
 66       0.184237919158
 67       0.056740001915
 68      -0.113410803167
 69      -0.005057198017
 70      -0.039848455112
 71      -0.089007330767
 72      -0.013664939822
 73      -0.049712273956
 74      -0.016052942814
 75      -0.001592054816
 76      -0.007315472327
 77       0.006161271802
 78       0.009096854239
 79       0.002538954233
 80      -0.002939708162
 81       0.003918045795
 82       0.014408608117
 83       0.012942965449
 84       0.009315277265
 85      -0.005383852987
 86       0.004341725780
 87      -0.002684228038
 88      -0.002173210800
 89      -0.002393183083
 90       0.001667961588
 91      -0.001736169756
 92       0.000135921961
 93      -0.001091100604
 94       0.029697314526
 95       0.069649579209
 96      -0.102469666102
 97      -0.165216756847
 98      -0.050867006976
 99      -0.118480688357
100      -0.023172962339
101       0.011564650279
102      -0.095915481343
103      -0.036534244065
104       0.013981310619
105      -0.017081160455
106      -0.004986296887
107       0.002101327106
108       0.000553170355
109       0.003821117110
110       0.002317803791
111       0.004152117043
112      -0.010748631727
113       0.004211577713
114       0.006634949058
115       0.006840026716
116       0.011624434021
117      -0.016386913675
118      -0.000991576771
119       0.000850854364
120       0.000481095658
121      -0.001419601417
122       0.002147580988
123      -0.003239404984
124      -0.002466887336
 Sym=     1a
 Ene= -1.04102958981120E+00
 Spin= Alpha
 Occup= 2.000000
  1       0.015944317196
  2       0.037398105879
  3      -0.055042907969
  4      -0.088818164045
  5      -0.027731260005
  6       0.001301631510
  7       0.128345724257
  8       0.001818312309
  9      -0.005560911795
 10       0.108611988715
 11      -0.005484876410
 12      -0.000438217384
 13       0.019067421780
 14      -0.000473043015
 15       0.001065840567
 16      -0.000918473465
 17       0.009049217020
 18       0.001756852467
 19       0.009098436212
 20       0.001289401100
 21      -0.005083179478
 22       0.015911391915
 23       0.002295956910
 24       0.016028738439
 25       0.000840722599
 26      -0.000440579016
 27       0.001733131790
 28       0.000104862261
 29       0.004216954404
 30      -0.000800002632
 31      -0.002295323530
 32      -0.042860453315
 33      -0.100530218065
 34       0.148115083346
 35       0.238199510295
 36       0.074741730521
 37      -0.032871340351
 38       0.098119659867
 39       0.039842571428
 40      -0.048659518577
 41       0.070902280344
 42       0.042586960823
 43      -0.007054344454
 44       0.013326196035
 45       0.006890003418
 46       0.003664734832
 47      -0.004720978976
 48       0.002842365210
 49       0.007246635680
 50      -0.005516696568
 51       0.003849352011
 52      -0.012920142256
 53       0.002923066273
 54       0.016257006390
 55      -0.003175974145
 56      -0.000402966885
 57      -0.001825131850
 58      -0.000341310010
 59       0.002456845653
 60      -0.000502321038
 61       0.003362522093
 62       0.000283741505
 63      -0.042646575487
 64      -0.100030441414
 65       0.147088342798
 66       0.238026372575
 67       0.073964638553
 68       0.039773554370
 69       0.099016759883
 70      -0.033436687586
 71       0.042491503257
 72       0.071493874951
 73      -0.049595989319
 74       0.006714418147
 75       0.013507426552
 76      -0.007026042176
 77       0.004527444439
 78      -0.004686271269
 79      -0.005544365834
 80       0.006889591510
 81       0.002848529209
 82       0.012401143585
 83      -0.012881261874
 84      -0.003177078937
 85       0.011580412344
 86       0.002952272628
 87      -0.001595955843
 88       0.002109514296
 89      -0.000225509116
 90      -0.003565742845
 91      -0.000497765755
 92      -0.001208588623
 93       0.000403751602
 94       0.069563329759
 95       0.163163813087
 96      -0.240161271620
 97      -0.387417541933
 98      -0.120979831162
 99       0.042968635539
100       0.031420705709
101       0.041923296528
102       0.046373472929
103      -0.013158949698
104       0.045341287307
105       0.007370961308
106       0.000677202562
107       0.007235551398
108      -0.002140667479
109      -0.003114688802
110       0.002987995109
111      -0.003823242309
112       0.003087908029
113       0.002629903102
114      -0.007382083244
115       0.010963699256
116       0.004277267787
117       0.011245354843
118      -0.001760352384
119       0.000864491584
120      -0.000794518356
121      -0.000168218190
122      -0.001279655546
123       0.001514697212
124       0.001117290005
 Sym=     1a
 Ene= -1.03770497922718E+00
 Spin= Alpha
 Occup= 2.000000
  1      -0.056078257310
  2      -0.131539769230
  3       0.193513782646
  4       0.313600783697
  5       0.098898694094
  6       0.058641703401
  7       0.017508394073
  8      -0.072225380204
  9       0.074229222597
 10       0.015013985632
 11      -0.036649636492
 12       0.011335159946
 13       0.002663732174
 14      -0.008157180655
 15      -0.008048117160
 16      -0.000991026961
 17       0.000118397869
 18       0.004417233056
 19       0.002330529074
 20      -0.011079151567
 21       0.008971367273
 22      -0.000180993366
 23       0.013322877861
 24       0.004628120011
 25      -0.002317498584
 26      -0.001998594900
 27       0.000141632589
 28       0.001356238092
 29      -0.000088519834
 30      -0.001491626460
 31      -0.001519123318
 32      -0.033554018955
 33      -0.078704120503
 34       0.115874261931
 35       0.187364298992
 36       0.059307077980
 37      -0.037756194495
 38      -0.004996499299
 39      -0.112173725115
 40      -0.048830189638
 41      -0.013901913032
 42      -0.088071119491
 43      -0.007511329781
 44      -0.001815369146
 45      -0.016069100784
 46      -0.005575548341
 47       0.008825228717
 48       0.003788830587
 49       0.003657646791
 50       0.002431294282
 51      -0.011950642799
 52       0.012468317370
 53       0.004143794450
 54       0.009654409414
 55       0.009295120610
 56       0.001140569016
 57       0.003008113259
 58       0.001674914187
 59      -0.001702272463
 60      -0.001632535755
 61       0.001077806174
 62       0.001990428359
 63       0.060152710572
 64       0.141103330971
 65      -0.207512737301
 66      -0.336421403346
 67      -0.105878029976
 68      -0.028843184104
 69       0.059990849284
 70      -0.058875393950
 71      -0.036862692921
 72       0.068338741444
 73      -0.019554243984
 74      -0.005532846853
 75       0.010749005565
 76      -0.005625619277
 77       0.007371370466
 78       0.000819467398
 79      -0.001455065652
 80       0.003080232451
 81       0.003707483355
 82       0.006330308487
 83       0.007920050274
 84      -0.011169342474
 85       0.007145797765
 86       0.010302965198
 87      -0.002604196033
 88       0.000346932344
 89      -0.000278573396
 90      -0.000518464092
 91      -0.001634080638
 92      -0.001915037012
 93       0.000823149506
 94       0.028999014248
 95       0.068025032529
 96      -0.100174763728
 97      -0.161658233775
 98      -0.051203032978
 99       0.011448726314
100      -0.022193922667
101      -0.120316229309
102       0.013874199173
103      -0.035387788907
104      -0.097787972585
105       0.002158374814
106      -0.005119507285
107      -0.017554914810
108       0.003222322692
109       0.003876284742
110      -0.010806359628
111       0.002530172146
112       0.002330262767
113       0.007815211258
114       0.006708569046
115      -0.016666923387
116       0.009268001296
117       0.006825010947
118       0.002131699776
119      -0.000539194728
120       0.002239425830
121       0.002646066828
122       0.002163850507
123       0.001645770482
124      -0.001041886798
 Sym=     1a
 Ene= -6.85900791614682E-01
 Spin= Alpha
 Occup= 2.000000
  1       0.022506187132
  2       0.053710368908
  3      -0.093435920465
  4      -0.130000636868
  5      -0.105888616907
  6       0.140939850942
  7      -0.000001149862
  8       0.138631291929