[Molden Format]
[Title]
 Molden file created by orca_2mkl for BaseName=./methane

[Atoms] AU
C    1   6          0.0000000000         0.0000000000         0.0000000000 
H    2   1          1.1888607259         1.1888607259         1.1888607259 
H    3   1         -1.1888607259        -1.1888607259         1.1888607259 
H    4   1          1.1888607259        -1.1888607259        -1.1888607259 
H    5   1         -1.1888607259         1.1888607259        -1.1888607259 
[GTO]
  1 0
s  11 1.0 
   312100.0000000000         0.0624123834
    46740.0000000000         0.1168617815
    10640.0000000000         0.2025229998
     3013.0000000000         0.3318838459
      982.8000000000         0.5196895195
      354.8000000000         0.7796582370
      138.4000000000         1.1099778348
       57.3500000000         1.4602361505
       24.9200000000         1.6798835992
       11.2300000000         1.5592862930
        5.2010000000         0.9802029621
s   1 1.0 
        2.4260000000         1.3854095902
s   1 1.0 
        0.9673000000         0.6951539311
s   1 1.0 
        0.4456000000         0.3887039723
s   1 1.0 
        0.1971000000         0.2108264328
s   1 1.0 
        0.0863500000         0.1135290095
d   3 1.0 
       46.1353741081        29.7479352703
       20.2682182254        24.4151231629
        6.0945916653        65.4953081880
d   1 1.0 
        1.7693044884         7.7379264471
d   1 1.0 
        0.4862266873         0.8071197411
d   1 1.0 
        0.3339012316         0.4181206532
d   1 1.0 
        0.1924957593         0.1594803296

  2 0
s   8 1.0 
    13940.8000000000         0.3056531351
     3471.4300000000         0.1947272791
     1903.1800000000         0.4070940042
      623.2860000000         0.7103835792
      290.3600000000         0.6711450512
      126.5850000000         1.5689744399
       44.6955000000         2.7553032183
       16.0038000000         4.3513600753
s   1 1.0 
        6.0805600000         2.7597375063
s   1 1.0 
        2.4762200000         1.4068636624
s   1 1.0 
        1.0757100000         0.7528032696
s   1 1.0 
        0.4896820000         0.4172013427
s   1 1.0 
        0.2297860000         0.2365390053
s   1 1.0 
        0.1099655000         0.1360982159
s   1 1.0 
        0.0523230000         0.0779703655
d   3 1.0 
        3.1324842646         0.7906622013
        1.5153893402        -2.4355860503
        0.9002899934         3.1643249881
d   1 1.0 
        0.5061684510         0.8659373266
d   1 1.0 
        0.3586173545         0.4737779701
d   1 1.0 
        0.0948003308         0.0461729184

  3 0
s   8 1.0 
    13940.8000000000         0.3056531351
     3471.4300000000         0.1947272791
     1903.1800000000         0.4070940042
      623.2860000000         0.7103835792
      290.3600000000         0.6711450512
      126.5850000000         1.5689744399
       44.6955000000         2.7553032183
       16.0038000000         4.3513600753
s   1 1.0 
        6.0805600000         2.7597375063
s   1 1.0 
        2.4762200000         1.4068636624
s   1 1.0 
        1.0757100000         0.7528032696
s   1 1.0 
        0.4896820000         0.4172013427
s   1 1.0 
        0.2297860000         0.2365390053
s   1 1.0 
        0.1099655000         0.1360982159
s   1 1.0 
        0.0523230000         0.0779703655
d   3 1.0 
        3.1324842646         0.7906622013
        1.5153893402        -2.4355860503
        0.9002899934         3.1643249881
d   1 1.0 
        0.5061684510         0.8659373266
d   1 1.0 
        0.3586173545         0.4737779701
d   1 1.0 
        0.0948003308         0.0461729184

  4 0
s   8 1.0 
    13940.8000000000         0.3056531351
     3471.4300000000         0.1947272791
     1903.1800000000         0.4070940042
      623.2860000000         0.7103835792
      290.3600000000         0.6711450512
      126.5850000000         1.5689744399
       44.6955000000         2.7553032183
       16.0038000000         4.3513600753
s   1 1.0 
        6.0805600000         2.7597375063
s   1 1.0 
        2.4762200000         1.4068636624
s   1 1.0 
        1.0757100000         0.7528032696
s   1 1.0 
        0.4896820000         0.4172013427
s   1 1.0 
        0.2297860000         0.2365390053
s   1 1.0 
        0.1099655000         0.1360982159
s   1 1.0 
        0.0523230000         0.0779703655
d   3 1.0 
        3.1324842646         0.7906622013
        1.5153893402        -2.4355860503
        0.9002899934         3.1643249881
d   1 1.0 
        0.5061684510         0.8659373266
d   1 1.0 
        0.3586173545         0.4737779701
d   1 1.0 
        0.0948003308         0.0461729184

  5 0
s   8 1.0 
    13940.8000000000         0.3056531351
     3471.4300000000         0.1947272791
     1903.1800000000         0.4070940042
      623.2860000000         0.7103835792
      290.3600000000         0.6711450512
      126.5850000000         1.5689744399
       44.6955000000         2.7553032183
       16.0038000000         4.3513600753
s   1 1.0 
        6.0805600000         2.7597375063
s   1 1.0 
        2.4762200000         1.4068636624
s   1 1.0 
        1.0757100000         0.7528032696
s   1 1.0 
        0.4896820000         0.4172013427
s   1 1.0 
        0.2297860000         0.2365390053
s   1 1.0 
        0.1099655000         0.1360982159
s   1 1.0 
        0.0523230000         0.0779703655
d   3 1.0 
        3.1324842646         0.7906622013
        1.5153893402        -2.4355860503
        0.9002899934         3.1643249881
d   1 1.0 
        0.5061684510         0.8659373266
d   1 1.0 
        0.3586173545         0.4737779701
d   1 1.0 
        0.0948003308         0.0461729184

[5D]
[9G]
[MO]
 Sym=     1a
 Ene= -1.18612107601044E+01
 Spin= Alpha
 Occup= 2.000000
  1      -0.857476294323
  2      -0.176912230448
  3      -0.013366732738
  4      -0.002463822394
  5       0.003668520068
  6      -0.006108158569
  7      -0.000000000000
  8      -0.000000000000
  9      -0.000000000000
 10       0.000000000000
 11      -0.000000000000
 12       0.000000000000
 13       0.000000000000
 14      -0.000000000000
 15      -0.000000000000
 16       0.000000000000
 17      -0.000000000000
 18      -0.000000000000
 19       0.000000000000
 20       0.000000000000
 21      -0.000000000000
 22       0.000000000000
 23       0.000000000000
 24      -0.000000000000
 25      -0.000000000000
 26       0.000000000001
 27       0.000000000000
 28       0.000000000000
 29       0.000000000000
 30      -0.000000000000
 31      -0.000000000000
 32      -0.000001715832
 33      -0.000066655345
 34       0.000204277917
 35      -0.000598179289
 36       0.000529120625
 37      -0.000921547415
 38       0.001767153952
 39       0.000006906803
 40       0.000000000000
 41      -0.000189556169
 42      -0.000189556169
 43       0.000000000000
 44      -0.000189556170
 45      -0.000000000000
 46       0.000342855601
 47       0.000342855601
 48      -0.000000000000
 49       0.000342855602
 50      -0.000000000000
 51      -0.000141321635
 52      -0.000141321635
 53       0.000000000000
 54      -0.000141321635
 55      -0.000000000000
 56      -0.000064439216
 57      -0.000064439215
 58      -0.000000000000
 59      -0.000064439215
 60      -0.000001715832
 61      -0.000066655345
 62       0.000204277917
 63      -0.000598179289
 64       0.000529120624
 65      -0.000921547414
 66       0.001767153952
 67       0.000006906803
 68       0.000000000000
 69       0.000189556169
 70       0.000189556169
 71      -0.000000000000
 72      -0.000189556169
 73      -0.000000000000
 74      -0.000342855601
 75      -0.000342855601
 76       0.000000000000
 77       0.000342855601
 78      -0.000000000000
 79       0.000141321635
 80       0.000141321635
 81      -0.000000000000
 82      -0.000141321635
 83      -0.000000000000
 84       0.000064439215
 85       0.000064439215
 86       0.000000000000
 87      -0.000064439215
 88      -0.000001715832
 89      -0.000066655345
 90       0.000204277917
 91      -0.000598179289
 92       0.000529120625
 93      -0.000921547415
 94       0.001767153953
 95       0.000006906803
 96      -0.000000000000
 97       0.000189556169
 98      -0.000189556169
 99      -0.000000000000
100       0.000189556169
101       0.000000000000
102      -0.000342855601
103       0.000342855601
104       0.000000000000
105      -0.000342855601
106      -0.000000000000
107       0.000141321635
108      -0.000141321635
109      -0.000000000000
110       0.000141321635
111      -0.000000000000
112       0.000064439215
113      -0.000064439215
114      -0.000000000000
115       0.000064439215
116      -0.000001715832
117      -0.000066655345
118       0.000204277917
119      -0.000598179289
120       0.000529120626
121      -0.000921547416
122       0.001767153954
123       0.000006906803
124      -0.000000000000
125      -0.000189556169
126       0.000189556169
127       0.000000000000
128       0.000189556170
129      -0.000000000000
130       0.000342855601
131      -0.000342855601
132      -0.000000000000
133      -0.000342855602
134       0.000000000000
135      -0.000141321635
136       0.000141321635
137       0.000000000000
138       0.000141321635
139      -0.000000000000
140      -0.000064439215
141       0.000064439215
142      -0.000000000000
143       0.000064439215
 Sym=     1a
 Ene= -1.15748419580081E+00
 Spin= Alpha
 Occup= 2.000000
  1       0.207264327184
  2       0.185708620399
  3      -0.218709079350
  4      -0.392189240645
  5      -0.308987762537
  6       0.010686813591
  7       0.000000000000
  8       0.000000000000
  9       0.000000000000
 10       0.000000000000
 11      -0.000000000000
 12      -0.000000000000
 13      -0.000000000000
 14      -0.000000000000
 15      -0.000000000000
 16       0.000000000000
 17       0.000000000000
 18      -0.000000000000
 19       0.000000000001
 20       0.000000000000
 21      -0.000000000002
 22      -0.000000000000
 23       0.000000000002
 24      -0.000000000002
 25      -0.000000000000
 26       0.000000000007
 27      -0.000000000000
 28      -0.000000000002
 29       0.000000000001
 30       0.000000000000
 31      -0.000000000004
 32      -0.003038881586
 33      -0.007981021694
 34      -0.012761925745
 35      -0.059075222767
 36      -0.030459934892
 37      -0.030614124034
 38      -0.016816540110
 39       0.000824909734
 40      -0.000000000000
 41      -0.004221207634
 42      -0.004221207634
 43      -0.000000000000
 44      -0.004221207634
 45       0.000000000001
 46       0.013954452028
 47       0.013954452027
 48       0.000000000000
 49       0.013954452026
 50      -0.000000000001
 51      -0.009386079116
 52      -0.009386079115
 53      -0.000000000000
 54      -0.009386079115
 55       0.000000000000
 56       0.000998208908
 57       0.000998208907
 58       0.000000000000
 59       0.000998208908
 60      -0.003038881586
 61      -0.007981021694
 62      -0.012761925746
 63      -0.059075222766
 64      -0.030459934895
 65      -0.030614124033
 66      -0.016816540113
 67       0.000824909735
 68      -0.000000000000
 69       0.004221207634
 70       0.004221207634
 71       0.000000000000
 72      -0.004221207634
 73       0.000000000001
 74      -0.013954452028
 75      -0.013954452027
 76      -0.000000000000
 77       0.013954452026
 78      -0.000000000001
 79       0.009386079116
 80       0.009386079115
 81       0.000000000000
 82      -0.009386079115
 83       0.000000000000
 84      -0.000998208908
 85      -0.000998208908
 86      -0.000000000000
 87       0.000998208908
 88      -0.003038881586
 89      -0.007981021694
 90      -0.012761925745
 91      -0.059075222769
 92      -0.030459934882
 93      -0.030614124048
 94      -0.016816540102
 95       0.000824909731
 96       0.000000000000
 97       0.004221207634
 98      -0.004221207635
 99       0.000000000000
100       0.004221207634
101      -0.000000000001
102      -0.013954452028
103       0.013954452028
104      -0.000000000000
105      -0.013954452028
106       0.000000000001
107       0.009386079117
108      -0.009386079117
109       0.000000000000
110       0.009386079116
111      -0.000000000000
112      -0.000998208908
113       0.000998208908
114       0.000000000000
115      -0.000998208908
116      -0.003038881586
117      -0.007981021694
118      -0.012761925746
119      -0.059075222766
120      -0.030459934889
121      -0.030614124037
122      -0.016816540112
123       0.000824909735
124       0.000000000000
125      -0.004221207634
126       0.004221207634
127      -0.000000000000
128       0.004221207634
129      -0.000000000000
130       0.013954452026
131      -0.013954452027
132       0.000000000000
133      -0.013954452026
134       0.000000000001
135      -0.009386079114
136       0.009386079115
137      -0.000000000000
138       0.009386079115
139      -0.000000000000
140       0.000998208908
141      -0.000998208908
142      -0.000000000000
143      -0.000998208907
 Sym=     1a
 Ene= -5.45307377283171E-01
 Spin= Alpha
 Occup= 2.000000
  1       0.000000000000
  2       0.000000000000
  3       0.000000000001
  4      -0.000000000005
  5       0.000000000001
  6       0.000000000026
  7      -0.000000000000
  8       0.000006067236
  9      -0.001146004205
 10      -0.000000000000
 11       0.000146583474
 12       0.000000000000
 13       0.000036843389
 14      -0.006959133152
 15       0.000000000000
 16       0.000890130750
 17      -0.000000000000
 18      -0.000607378074
 19       0.114724213149
 20      -0.000000000000
 21      -0.014674178102
 22       0.000000000000
 23       0.002560034872
 24      -0.483550310578
 25       0.000000000000
 26       0.061850097154
 27      -0.000000000000
 28      -0.003428454511
 29       0.647581087857
 30      -0.000000000000
 31      -0.082830995760
 32      -0.004405968412
 33      -0.002985313030
 34      -0.051416485872
 35       0.049555113770
 36      -0.240965036311
 37      -0.207426041401
 38      -0.147339802274
 39       0.039774136102
 40       0.027314972292
 41       0.034125955210
 42      -0.021369196738
 43      -0.038033223090
 44       0.040894605593
 45      -0.073727975434
 46      -0.180097209156
 47       0.036246648045
 48       0.102658442614
 49      -0.206484306664
 50       0.015612039323
 51       0.168066377419
 52      -0.090427570610
 53      -0.021738120480
 54       0.199594450999
 55       0.032982884135
 56      -0.030757718757
 57      -0.013614458522
 58      -0.045925193170
 59      -0.032848654184
 60       0.005706295108
 61       0.003866363881
 62       0.066590954521
 63      -0.064180238452
 64       0.312080677890
 65       0.268643371345
 66       0.190823970762
 67      -0.051512614982
 68      -0.016139445259
 69       0.044111242097
 70      -0.011383909851
 71       0.038033223090
 72      -0.036758075867
 73       0.043563236918
 74      -0.232912768172
 75      -0.016568910970
 76      -0.102658442614
 77       0.204246978496
 78      -0.009224598604
 79       0.217265783990
 80      -0.041228164038
 81       0.021738120480
 82      -0.183015062619
 83      -0.019488412393
 84      -0.039808552507
 85      -0.022665292272
 86       0.045925193170
 87       0.037537052396
 88      -0.005760116869
 89      -0.003902831457
 90      -0.067219040432
 91       0.064785586251
 92      -0.315024221802
 93      -0.271177218364
 94      -0.192623816799
 95       0.051998481886
 96       0.016370728073
 97      -0.043940027058
 98      -0.010970609044
 99      -0.037632629506
100      -0.037171376674
101      -0.044187510220
102       0.232820163292
103      -0.018754998257
104       0.101577169537
105       0.206433065782
106       0.009356789352
107      -0.216579547291
108      -0.039191752946
109      -0.021509159389
110      -0.185051473710
111       0.019767686769
112       0.040002609943
113      -0.023039914391
114      -0.045441475762
115       0.037911674515
116       0.004459790173
117       0.003021780606
118       0.052044571783
119      -0.050160461569
120       0.243908580224
121       0.209959888413
122       0.149139648285
123      -0.040260003008
124      -0.027546255105
125      -0.033954740170
126      -0.020955895932
127       0.037632629506
128       0.041307906399
129       0.074352248736
130       0.180004604272
131       0.034060560761
132      -0.101577169538
133      -0.208670393947
134      -0.015744230070
135      -0.167380140716
136      -0.088391159521
137       0.021509159389
138       0.201630862087
139      -0.033262158511
140       0.030951776194
141      -0.013989080642
142       0.045441475762
143      -0.033223276304
 Sym=     1a
 Ene= -5.45307377282494E-01
 Spin= Alpha
 Occup= 2.000000
  1       0.000000000000
  2       0.000000000000
  3      -0.000000000001
  4      -0.000000000002
  5      -0.000000000002
  6       0.000000000019
  7      -0.000000000000
  8      -0.001010678811
  9       0.000065756750
 10      -0.000000000000
 11       0.000555925866
 12       0.000000000000
 13      -0.006137367177
 14       0.000399308969
 15       0.000000000000
 16       0.003375870520
 17      -0.000000000000
 18       0.101177055171
 19      -0.006582776643
 20      -0.000000000000
 21      -0.055652635262
 22       0.000000000000
 23      -0.426450487895
 24       0.027745703362
 25       0.000000000000
 26       0.234569917700
 27      -0.000000000000
 28       0.571111763947
 29      -0.037157650564
 30      -0.000000000000
 31      -0.314141134957
 32      -0.001725372713
 33      -0.001169045510
 34      -0.020134643363
 35       0.019405731565
 36      -0.094361660369
 37      -0.081227825223
 38      -0.057698117606
 39       0.015575513864
 40       0.039202126009
 41      -0.035435043039
 42       0.016416736328
 43       0.035536263426
 44       0.040028126560
 45      -0.105813519885
 46       0.119712465145
 47      -0.082427968031
 48      -0.095918704255
 49      -0.174475274294
 50       0.022406214783
 51      -0.161487704056
 52       0.080035579783
 53       0.020310968673
 54       0.190016385151
 55       0.047336644803
 56       0.003029948163
 57      -0.012987822239
 58       0.042910108853
 59      -0.020281723975
 60       0.006656933634
 61       0.004510479607
 62       0.077684654573
 63      -0.074872324976
 64       0.364071662665
 65       0.313397937253
 66       0.222614225605
 67      -0.060094343124
 68       0.003181680079
 69       0.002434710356
 70       0.054286489723
 71      -0.035536263426
 72      -0.024340109879
 73      -0.008587921751
 74      -0.080593464404
 75      -0.282733897580
 76       0.095918704255
 77       0.165990088718
 78       0.001818509572
 79       0.025103765997
 80       0.266627049836
 81      -0.020310968673
 82      -0.127138142768
 83       0.003841884577
 84      -0.031295837786
 85      -0.047313608188
 86      -0.042910108853
 87       0.038062735225
 88       0.002308694031
 89       0.001564281412
 90       0.026941848862
 91      -0.025966504131
 92       0.126263852660
 93       0.108689670353
 94       0.077204943436
 95      -0.020841347014
 96      -0.041708774299
 97      -0.030955683846
 98      -0.014561105909
 99      -0.031194621231
100       0.044507485753
101       0.112579410540
102       0.096019618951
103       0.081424311627
104       0.084199837883
105      -0.198168120488
106      -0.023838905408
107      -0.139417049135
108      -0.072598133005
109      -0.017829475719
110       0.212087040073
111      -0.050363427587
112      -0.001030219545
113       0.015091018721
114      -0.037667567287
115      -0.024341891683
116      -0.007240254953
117      -0.004905715509
118      -0.084491860071
119       0.081433097543
120      -0.395973854957
121      -0.340859782381
122      -0.242121051457
123       0.065360176275
124      -0.000675031788
125       0.006914069550
126      -0.052430859305
127       0.031194621231
128      -0.028819469073
129       0.001822031096
130      -0.104286310600
131       0.281730241178
132      -0.084199837883
133       0.189682934914
134      -0.000385818946
135       0.047174420920
136      -0.259189603060
137       0.017829475719
138      -0.149208797692
139      -0.000815101793
140      -0.035356005493
141       0.049416804668
142       0.037667567287
143       0.042122902932
 Sym=     1a
 Ene= -5.45307377282189E-01
 Spin= Alpha
 Occup= 2.000000
  1      -0.000000000000
  2       0.000000000000
  3       0.000000000000
  4      -0.000000000006
  5       0.000000000003
  6       0.000000000035
  7      -0.000000000000
  8       0.000559768416
  9       0.000131147136
 10      -0.000000000000
 11       0.001002152121
 12       0.000000000000
 13       0.003399204728
 14       0.000796393420
 15       0.000000000000
 16       0.006085588798
 17      -0.000000000000
 18      -0.056037308596
 19      -0.013128879016
 20      -0.000000000000
 21      -0.100323468071
 22       0.000000000000
 23       0.236191272360
 24       0.055336825538
 25       0.000000000000
 26       0.422852705366
 27      -0.000000000000
 28      -0.316312486623
 29      -0.074108280139
 30      -0.000000000000
 31      -0.566293533400
 32       0.007509514518
 33       0.005088155451
 34       0.087634048142
 35      -0.084461532753
 36       0.410699821604
 37       0.353536100581
 38       0.251125346436
 39      -0.067790871452
 40       0.025033200793
 41      -0.030702033468
 42      -0.051348672211
 43      -0.014150033339
 44      -0.009392459056
 45      -0.067569066922
 46       0.199897906500
 47       0.280387343180
 48       0.038193460152
 49       0.116824064119
 50       0.014307878402
 51      -0.158534383891
 52      -0.254705509910
 53      -0.008087538325
 54      -0.059275335063
 55       0.030227640173
 56       0.043939886065
 57       0.050317933332
 58      -0.017086193095
 59       0.037357047939
 60       0.001380473869
 61       0.000935355394
 62       0.016109764956
 63      -0.015526561268
 64       0.075498936855
 65       0.064990530046
 66       0.046164372865
 67      -0.012461997548
 68       0.051370913204
 69       0.037564723822
 70       0.016918085079
 71       0.014150033339
 72       0.037672813764
 73      -0.138659243778
 74      -0.161188052112
 75      -0.080698615432
 76      -0.038193460152
 77      -0.132120076416
 78       0.029361358631
 79       0.177828897658
 80       0.081657771638
 81       0.008087538325
 82       0.172624205826
 83       0.062030480587
 84      -0.017938258850
 85      -0.011560211582
 86       0.017086193095
 87      -0.005303711940
 88      -0.006346121853
 89      -0.004299885673
 90      -0.074057563278
 91       0.071376541470
 92      -0.347073182537
 93      -0.298765407180
 94      -0.212220385288
 95       0.057288541367
 96      -0.030032531441
 97      -0.021768270902
 98       0.055049595334
 99       0.022809128026
100      -0.000458696491
101       0.081063150850
102       0.152644215803
103      -0.282389065270
104      -0.061565899116
105       0.069570373421
106      -0.017165276087
107      -0.114516038341
108       0.269538966976
109       0.013036696294
110      -0.015256989512
111      -0.036264342197
112       0.035842172594
113      -0.046123257990
114       0.027542067711
115       0.029259334468
116      -0.002543866535
117      -0.001723625172
118      -0.029686249820
119       0.028611552551
120      -0.139125575923
121      -0.119761223453
122      -0.085069334050
123       0.022964327633
124      -0.046371582556
125       0.046498486390
126      -0.013217161958
127      -0.022809128026
128       0.028739051196
129       0.125165159850
130      -0.208441742817
131       0.078696893348
132       0.061565899116
133      -0.084866385711
134      -0.026503960945
135       0.221847243215
136      -0.066824314579
137      -0.013036696294
138       0.128605860268
139      -0.055993778563
140      -0.026035972319
141       0.015754886923
142      -0.027542067711
143       0.002794001530
 Sym=     1a
 Ene= 5.22870826415874E-02
 Spin= Alpha
 Occup= 0.000000
  1      -0.065085428404
  2      -0.063163959694
  3       0.100203045927
  4       0.071446528828
  5       0.610625576622
  6      -1.905040892886
  7      -0.000000000000
  8       0.000000000000
  9       0.000000000000
 10       0.000000000000
 11      -0.000000000000
 12       0.000000000000
 13       0.000000000000
 14      -0.000000000000
 15      -0.000000000000
 16       0.000000000000
 17      -0.000000000001
 18      -0.000000000000
 19       0.000000000002
 20       0.000000000001
 21      -0.000000000001
 22       0.000000000001
 23       0.000000000002
 24      -0.000000000005
 25      -0.000000000001
 26       0.000000000001
 27       0.000000000000
 28      -0.000000000002
 29       0.000000000004
 30       0.000000000001
 31      -0.000000000000
 32       0.000056193771
 33      -0.004519112675
 34       0.016185561411
 35      -0.066598155997
 36       0.168244213241
 37      -0.567947688570
 38       1.519532780868
 39      -0.819273336678
 40       0.000000000000
 41       0.015273882602
 42       0.015273882601
 43      -0.000000000001
 44       0.015273882600
 45      -0.000000000001
 46      -0.047772695838
 47      -0.047772695836
 48       0.000000000002
 49      -0.047772695835
 50       0.000000000000
 51       0.042628232913
 52       0.042628232911
 53      -0.000000000002
 54       0.042628232910
 55       0.000000000001
 56      -0.058951539881
 57      -0.058951539883
 58       0.000000000001
 59      -0.058951539882
 60       0.000056193771
 61      -0.004519112675
 62       0.016185561410
 63      -0.066598155996
 64       0.168244213240
 65      -0.567947688570
 66       1.519532780868
 67      -0.819273336678
 68       0.000000000000
 69      -0.015273882601
 70      -0.015273882601
 71       0.000000000001
 72       0.015273882602
 73      -0.000000000001
 74       0.047772695837
 75       0.047772695837
 76      -0.000000000002
 77      -0.047772695838
 78       0.000000000001
 79      -0.042628232912
 80      -0.042628232912
 81       0.000000000001
 82       0.042628232913
 83       0.000000000000
 84       0.058951539881
 85       0.058951539880
 86      -0.000000000001
 87      -0.058951539883
 88       0.000056193771
 89      -0.004519112675
 90       0.016185561411
 91      -0.066598155998
 92       0.168244213246
 93      -0.567947688577
 94       1.519532780869
 95      -0.819273336677
 96       0.000000000001
 97      -0.015273882602
 98       0.015273882602
 99      -0.000000000000
100      -0.015273882600
101      -0.000000000003
102       0.047772695839
103      -0.047772695838
104       0.000000000001
105       0.047772695834
106       0.000000000003
107      -0.042628232913
108       0.042628232912
109      -0.000000000000
110      -0.042628232909
111      -0.000000000001
112       0.058951539882
113      -0.058951539883
114       0.000000000000
115       0.058951539880
116       0.000056193771
117      -0.004519112674
118       0.016185561408
119      -0.066598155989
120       0.168244213223
121      -0.567947688538
122       1.519532780822
123      -0.819273336649
124       0.000000000001
125       0.015273882602
126      -0.015273882603
127      -0.000000000000
128      -0.015273882601
129      -0.000000000002
130      -0.047772695841
131       0.047772695842
132       0.000000000000
133       0.047772695837
134       0.000000000002
135       0.042628232915
136      -0.042628232917
137      -0.000000000000
138      -0.042628232913
139      -0.000000000001
140      -0.058951539883
141       0.058951539882
142      -0.000000000000
143       0.058951539882
 Sym=     1a
 Ene= 1.09577384347453E-01
 Spin= Alpha
 Occup= 0.000000
  1       0.000000000001
  2      -0.000000000002
  3       0.000000000014
  4      -0.000000000054
  5       0.000000000217
  6      -0.000000000900
  7      -0.000000000000
  8       0.000016006373
  9       0.000014614188
 10       0.000000000000
 11      -0.000023595048
 12       0.000000000000
 13      -0.001676203276
 14      -0.001530412403
 15      -0.000000000000
 16       0.002470896929
 17      -0.000000000000
 18       0.048060815201
 19       0.043880636995
 20       0.000000000000
 21      -0.070846610483
 22       0.000000000000
 23      -0.128313673303
 24      -0.117153354695
 25      -0.000000000000
 26       0.189147620616
 27       0.000000000000
 28       0.105600253513
 29       0.096415476829
 30      -0.000000000000
 31      -0.155665691774
 32      -0.000355669852
 33       0.001316355472
 34      -0.009398844711
 35       0.026431495042
 36      -0.082961078327
 37       0.164107349733
 38      -0.396849498766
 39       0.497728813238
 40       0.010585098203
 41      -0.002928027701
 42      -0.002646205483
 43       0.000328029552
 44       0.005088559146
 45      -0.022462451408
 46       0.007362098804
 47       0.006142010581
 48      -0.000696105736
 49      -0.027343975964
 50      -0.019142528856
 51      -0.016563853833
 52      -0.014388566906
 53      -0.000593222308
 54       0.045313364271
 55       0.056033833756
 56       0.014670410288
 57       0.012995334886
 58       0.001736474725
 59      -0.032978012730
 60       0.002744690236
 61      -0.010158263338
 62       0.072530514478
 63      -0.203970806314
 64       0.640207374265
 65      -1.266409955205
 66       3.062471955102
 67      -3.840953649744
 68       0.002254063367
 69      -0.000831186770
 70      -0.000549364553
 71      -0.000328029552
 72       0.002367376036
 73      -0.004783308372
 74      -0.037410738560
 75      -0.038630826782
 76       0.000696105736
 77       0.030760140196
 78      -0.004076341310
 79       0.040168284725
 80       0.042343571652
 81       0.000593222308
 82      -0.028310979483
 83       0.011932228648
 84      -0.016150058957
 85      -0.017825134359
 86      -0.001736474725
 87       0.007019365869
 88      -0.001124030248
 89       0.004160103397
 90      -0.029703348964
 91       0.083531959916
 92      -0.262183484578
 93       0.518631599141
 94      -1.254171069773
 95       1.572981898022