[Molden Format]
[Atoms] (AU)
N    1    7         0.982657589101       0.996830535097       0.968484643104
N    2    7        -0.982657589101      -0.987381904433       0.987381904433
N    3    7        -0.982657589101       0.977933273768      -0.977933273768
N    4    7         0.982657589101      -0.987381904433      -0.977933273768
[GTO]
  1 0
 s    9  1.00
    45840.0000000000         0.0000920000
     6868.0000000000         0.0007170000
     1563.0000000000         0.0037490000
      442.4000000000         0.0155320000
      144.3000000000         0.0531460000
       52.1800000000         0.1467870000
       20.3400000000         0.3046630000
        8.3810000000         0.3976840000
        3.5290000000         0.2176410000
 s    9  1.00
    45840.0000000000        -0.0000200000
     6868.0000000000        -0.0001590000
     1563.0000000000        -0.0008240000
      442.4000000000        -0.0034780000
      144.3000000000        -0.0119660000
       52.1800000000        -0.0353880000
       20.3400000000        -0.0800770000
        8.3810000000        -0.1467220000
        3.5290000000        -0.1163600000
 s    1  1.00
        1.0540000000         1.0000000000
 s    1  1.00
        0.4118000000         1.0000000000
 s    1  1.00
        0.1552000000         1.0000000000
 p    3  1.00
       49.3300000000         0.0055330000
       11.3700000000         0.0379620000
        3.4350000000         0.1490280000
 p    1  1.00
        1.1820000000         1.0000000000
 p    1  1.00
        0.4173000000         1.0000000000
 p    1  1.00
        0.1428000000         1.0000000000
 d    1  1.00
        2.8370000000         1.0000000000
 d    1  1.00
        0.9680000000         1.0000000000
 d    1  1.00
        0.3350000000         1.0000000000
 f    1  1.00
        2.0270000000         1.0000000000
 f    1  1.00
        0.6850000000         1.0000000000
 g    1  1.00
        1.4270000000         1.0000000000

  2 0
 s    9  1.00
    45840.0000000000         0.0000920000
     6868.0000000000         0.0007170000
     1563.0000000000         0.0037490000
      442.4000000000         0.0155320000
      144.3000000000         0.0531460000
       52.1800000000         0.1467870000
       20.3400000000         0.3046630000
        8.3810000000         0.3976840000
        3.5290000000         0.2176410000
 s    9  1.00
    45840.0000000000        -0.0000200000
     6868.0000000000        -0.0001590000
     1563.0000000000        -0.0008240000
      442.4000000000        -0.0034780000
      144.3000000000        -0.0119660000
       52.1800000000        -0.0353880000
       20.3400000000        -0.0800770000
        8.3810000000        -0.1467220000
        3.5290000000        -0.1163600000
 s    1  1.00
        1.0540000000         1.0000000000
 s    1  1.00
        0.4118000000         1.0000000000
 s    1  1.00
        0.1552000000         1.0000000000
 p    3  1.00
       49.3300000000         0.0055330000
       11.3700000000         0.0379620000
        3.4350000000         0.1490280000
 p    1  1.00
        1.1820000000         1.0000000000
 p    1  1.00
        0.4173000000         1.0000000000
 p    1  1.00
        0.1428000000         1.0000000000
 d    1  1.00
        2.8370000000         1.0000000000
 d    1  1.00
        0.9680000000         1.0000000000
 d    1  1.00
        0.3350000000         1.0000000000
 f    1  1.00
        2.0270000000         1.0000000000
 f    1  1.00
        0.6850000000         1.0000000000
 g    1  1.00
        1.4270000000         1.0000000000

  3 0
 s    9  1.00
    45840.0000000000         0.0000920000
     6868.0000000000         0.0007170000
     1563.0000000000         0.0037490000
      442.4000000000         0.0155320000
      144.3000000000         0.0531460000
       52.1800000000         0.1467870000
       20.3400000000         0.3046630000
        8.3810000000         0.3976840000
        3.5290000000         0.2176410000
 s    9  1.00
    45840.0000000000        -0.0000200000
     6868.0000000000        -0.0001590000
     1563.0000000000        -0.0008240000
      442.4000000000        -0.0034780000
      144.3000000000        -0.0119660000
       52.1800000000        -0.0353880000
       20.3400000000        -0.0800770000
        8.3810000000        -0.1467220000
        3.5290000000        -0.1163600000
 s    1  1.00
        1.0540000000         1.0000000000
 s    1  1.00
        0.4118000000         1.0000000000
 s    1  1.00
        0.1552000000         1.0000000000
 p    3  1.00
       49.3300000000         0.0055330000
       11.3700000000         0.0379620000
        3.4350000000         0.1490280000
 p    1  1.00
        1.1820000000         1.0000000000
 p    1  1.00
        0.4173000000         1.0000000000
 p    1  1.00
        0.1428000000         1.0000000000
 d    1  1.00
        2.8370000000         1.0000000000
 d    1  1.00
        0.9680000000         1.0000000000
 d    1  1.00
        0.3350000000         1.0000000000
 f    1  1.00
        2.0270000000         1.0000000000
 f    1  1.00
        0.6850000000         1.0000000000
 g    1  1.00
        1.4270000000         1.0000000000

  4 0
 s    9  1.00
    45840.0000000000         0.0000920000
     6868.0000000000         0.0007170000
     1563.0000000000         0.0037490000
      442.4000000000         0.0155320000
      144.3000000000         0.0531460000
       52.1800000000         0.1467870000
       20.3400000000         0.3046630000
        8.3810000000         0.3976840000
        3.5290000000         0.2176410000
 s    9  1.00
    45840.0000000000        -0.0000200000
     6868.0000000000        -0.0001590000
     1563.0000000000        -0.0008240000
      442.4000000000        -0.0034780000
      144.3000000000        -0.0119660000
       52.1800000000        -0.0353880000
       20.3400000000        -0.0800770000
        8.3810000000        -0.1467220000
        3.5290000000        -0.1163600000
 s    1  1.00
        1.0540000000         1.0000000000
 s    1  1.00
        0.4118000000         1.0000000000
 s    1  1.00
        0.1552000000         1.0000000000
 p    3  1.00
       49.3300000000         0.0055330000
       11.3700000000         0.0379620000
        3.4350000000         0.1490280000
 p    1  1.00
        1.1820000000         1.0000000000
 p    1  1.00
        0.4173000000         1.0000000000
 p    1  1.00
        0.1428000000         1.0000000000
 d    1  1.00
        2.8370000000         1.0000000000
 d    1  1.00
        0.9680000000         1.0000000000
 d    1  1.00
        0.3350000000         1.0000000000
 f    1  1.00
        2.0270000000         1.0000000000
 f    1  1.00
        0.6850000000         1.0000000000
 g    1  1.00
        1.4270000000         1.0000000000

[5D]
[9G]

[MO]
 Sym= A
 Ene=       -15.7486585656
 Spin= Alpha
 Occup=  2.0000
  1       0.500157571158
  2       0.000421464951
  3       0.008517328559
  4      -0.001866882734
  5       0.000728310166
  6      -0.000903229780
  7      -0.000908690984
  8      -0.000897343677
  9       0.000229376483
 10       0.000233225699
 11       0.000225932719
 12      -0.000161400605
 13      -0.000160557003
 14      -0.000162441878
 15      -0.000185186254
 16      -0.000194383755
 17      -0.000178136358
 18      -0.000000715309
 19       0.000044736981
 20       0.000044771919
 21      -0.000000360298
 22       0.000044908345
 23       0.000003182951
 24      -0.000050392312
 25      -0.000053494834
 26       0.000001790457
 27      -0.000056562876
 28      -0.000000816756
 29       0.000162364106
 30       0.000159694947
 31      -0.000000443527
 32       0.000157565288
 33      -0.000009565138
 34       0.000006198124
 35       0.000005994950
 36       0.000000271781
 37       0.000023578092
 38      -0.000007308514
 39       0.000007488699
 40       0.000036521358
 41      -0.000024649249
 42      -0.000021921966
 43      -0.000002142673
 44       0.000035149157
 45       0.000025208634
 46      -0.000025178560
 47      -0.000010602158
 48       0.000005718174
 49       0.000005309658
 50       0.000001075454
 51      -0.000014265943
 52       0.000015301453
 53      -0.000014341737
 54      -0.000006625931
 55      -0.000000045342
 56       0.475456653982
 57       0.000404175339
 58       0.008096242603
 59      -0.001779398585
 60       0.000563857345
 61       0.000853500204
 62       0.000856771537
 63      -0.000864400561
 64      -0.000212798921
 65      -0.000211106893
 66       0.000213820424
 67       0.000134957396
 68       0.000133054325
 69      -0.000139507440
 70       0.000158556300
 71       0.000149957564
 72      -0.000155287675
 73      -0.000000089335
 74      -0.000044123907
 75      -0.000044551912
 76      -0.000000930783
 77       0.000043887164
 78       0.000002266703
 79       0.000056006234
 80       0.000054972847
 81       0.000002215819
 82      -0.000056939470
 83       0.000002818646
 84      -0.000146623012
 85      -0.000147887542
 86      -0.000000367430
 87       0.000142453206
 88      -0.000009210400
 89      -0.000005934680
 90      -0.000006283672
 91      -0.000000445597
 92       0.000022116888
 93       0.000007415349
 94      -0.000007197579
 95       0.000031941904
 96       0.000020332409
 97       0.000021857091
 98      -0.000000023721
 99       0.000039922004
100      -0.000024096435
101       0.000024535317
102      -0.000009238201
103      -0.000005497288
104      -0.000005635004
105       0.000000018355
106      -0.000014643321
107      -0.000014726582
108       0.000013923131
109      -0.000006677714
110       0.000000091583
111       0.516473636059
112       0.000433707233
113       0.008799699663
114      -0.001930671126
115       0.000841512505
116       0.000938715593
117      -0.000926364444
118       0.000935463364
119      -0.000240625654
120       0.000240119655
121      -0.000241662840
122       0.000178478602
123      -0.000174938748
124       0.000179634029
125       0.000203879479
126      -0.000209808151
127       0.000210157575
128      -0.000000708649
129       0.000045655522
130      -0.000044773626
131       0.000000532347
132      -0.000045077438
133       0.000002844505
134      -0.000050510740
135       0.000052616735
136       0.000000701683
137       0.000051621107
138       0.000000700432
139       0.000172997853
140      -0.000167441342
141       0.000002585227
142      -0.000168681441
143       0.000009583358
144      -0.000006179984
145       0.000005765411
146      -0.000000687951
147       0.000024696776
148       0.000007372474
149       0.000008054182
150      -0.000036656715
151       0.000024158293
152      -0.000022586179
153       0.000002418985
154       0.000031533355
155      -0.000028823498
156      -0.000029087216
157      -0.000010305222
158       0.000005581267
159      -0.000005733470
160       0.000000759650
161       0.000014950730
162       0.000014740298
163       0.000014439521
164      -0.000008107338
165       0.000000121842
166       0.493097174739
167       0.000417018978
168       0.008399669910
169      -0.001846044588
170       0.000684444410
171      -0.000890707717
172       0.000894167714
173       0.000887673207
174       0.000225083817
175      -0.000223326367
176      -0.000226060228
177      -0.000154203649
178       0.000152038618
179       0.000155105039
180      -0.000179042269
181       0.000170029178
182       0.000184913687
183      -0.000001523312
184      -0.000044195213
185       0.000044647354
186      -0.000000972938
187      -0.000044926297
188       0.000003642378
189       0.000055046782
190      -0.000054016203
191       0.000002327981
192       0.000053022516
193      -0.000001008451
194      -0.000154993105
195       0.000156195903
196      -0.000000349856
197      -0.000157494475
198       0.000009526002
199       0.000005200973
200      -0.000005640838
201       0.000000430750
202       0.000023288727
203      -0.000008051893
204      -0.000007767209
205      -0.000033245374
206      -0.000020967327
207       0.000020946956
208      -0.000000937537
209       0.000036096784
210       0.000026959570
211       0.000028623605
212      -0.000009286016
213      -0.000005964032
214       0.000005459546
215       0.000000041261
216       0.000014606239
217      -0.000014734602
218      -0.000014149126
219      -0.000007826514
220      -0.000000422688
 Sym= A
 Ene=       -15.7477363950
 Spin= Alpha
 Occup=  2.0000
  1       0.291955053196
  2       0.000192288382
  3       0.004866070227
  4      -0.000839622771
  5       0.001794455806
  6      -0.000478870818
  7      -0.000551631553
  8      -0.000489843639
  9       0.000239711870
 10       0.000122399931
 11       0.000210483440
 12      -0.000382858687
 13      -0.000219309055
 14      -0.000340782762
 15      -0.000515228741
 16      -0.000052004514
 17      -0.000408122174
 18      -0.000006587746
 19      -0.000006786616
 20       0.000020792051
 21      -0.000020267870
 22       0.000014628529
 23       0.000014424520
 24       0.000020901616
 25       0.000022102448
 26       0.000042132126
 27       0.000021009004
 28       0.000008012972
 29       0.000145904831
 30       0.000150295270
 31       0.000033747877
 32       0.000152071895
 33       0.000000488585
 34      -0.000014487661
 35       0.000004902794
 36      -0.000022279966
 37       0.000010850247
 38      -0.000010031081
 39      -0.000001037949
 40       0.000017006467
 41       0.000001728297
 42      -0.000037520736
 43       0.000006913477
 44      -0.000036691458
 45       0.000006378889
 46      -0.000047168726
 47      -0.000007366941
 48       0.000004700982
 49       0.000002025230
 50       0.000003074108
 51       0.000001867371
 52       0.000016743622
 53       0.000008298150
 54      -0.000004588262
 55       0.000006529215
 56       0.151370554783
 57       0.000100343219
 58       0.002523432982
 59      -0.000441024671
 60       0.000902890359
 61       0.000303980432
 62       0.000237538033
 63      -0.000247506393
 64      -0.000020005837
 65      -0.000142825866
 66       0.000130975433
 67       0.000045833296
 68       0.000222296992
 69      -0.000206523725
 70      -0.000131240459
 71       0.000336440554
 72      -0.000285270617
 73      -0.000009180220
 74      -0.000015882725
 75       0.000012539909
 76       0.000020027834
 77       0.000012778730
 78       0.000019245759
 79      -0.000009997409
 80      -0.000009253397
 81      -0.000041059882
 82       0.000009164215
 83       0.000018166892
 84      -0.000075288571
 85      -0.000081873882
 86      -0.000039155602
 87       0.000071891633
 88       0.000000557392
 89      -0.000003599648
 90       0.000015319890
 91       0.000021029464
 92       0.000005951643
 93       0.000000571138
 94      -0.000010610183
 95       0.000000068089
 96       0.000030892235
 97      -0.000006030761
 98      -0.000003404524
 99      -0.000018233111
100      -0.000038009226
101      -0.000004600960
102      -0.000005119523
103      -0.000002555875
104      -0.000005500414
105      -0.000004508807
106       0.000005185075
107       0.000008992030
108       0.000016988725
109      -0.000000809745
110      -0.000006394485
111      -0.832560514587
112      -0.000540055866
113      -0.013874704102
114       0.002396380222
115      -0.005304586433
116      -0.001447051500
117       0.001438779680
118      -0.001458384531
119       0.000568613354
120      -0.000552996757
121       0.000540834548
122      -0.000945729780
123       0.000925010881
124      -0.000905566447
125      -0.001010917141
126       0.000952443915
127      -0.000905366336
128      -0.000003348563
129      -0.000025786498
130       0.000028033880
131       0.000001815550
132       0.000021915306
133       0.000004205886
134      -0.000068788397
135       0.000066078136
136      -0.000007568253
137       0.000066548358
138       0.000007759489
139      -0.000434437337
140       0.000434157999
141      -0.000005937182
142       0.000435454740
143      -0.000000821726
144       0.000001678483
145      -0.000004346841
146      -0.000003038220
147      -0.000032851984
148       0.000000783492
149       0.000001816643
150       0.000084458512
151      -0.000044335131
152       0.000048742732
153      -0.000000418817
154       0.000111437586
155       0.000055766659
156       0.000061558535
157       0.000018676609
158      -0.000001454411
159       0.000001503730
160      -0.000000483068
161      -0.000011919796
162      -0.000008962287
163      -0.000006203017
164       0.000016547934
165       0.000000579353
166       0.429947546564
167       0.000281318063
168       0.007166341592
169      -0.001249518264
170       0.002657470408
171      -0.000725150824
172       0.000734750705
173       0.000783323751
174       0.000324433828
175      -0.000310588986
176      -0.000214691340
177      -0.000524022689
178       0.000504146412
179       0.000366207725
180      -0.000636771322
181       0.000585023399
182       0.000221761224
183       0.000018701897
184      -0.000020167733
185       0.000023473577
186      -0.000002671871
187       0.000001810258
188      -0.000038114665
189      -0.000030851925
190       0.000030714841
191       0.000005477008
192      -0.000030795500
193      -0.000037113387
194      -0.000220143433
195       0.000218462424
196       0.000003083136
197      -0.000225587494
198       0.000002743107
199       0.000012698843
200      -0.000014984825
201       0.000002370328
202       0.000016940054
203       0.000010332461
204       0.000011581381
205      -0.000071330003
206      -0.000016056777
207       0.000018911431
208      -0.000000574202
209      -0.000054982289
210       0.000015676907
211       0.000019620419
212      -0.000007127271
213       0.000005320256
214      -0.000006158719
215       0.000000654773
216       0.000018800443
217      -0.000001232881
218       0.000001680009
219      -0.000011645736
220      -0.000000564645
 Sym= A
 Ene=       -15.7477221727
 Spin= Alpha
 Occup=  2.0000
  1       0.801933490677
  2       0.000517819081
  3       0.013353201358
  4      -0.002305060831
  5       0.005072805169
  6      -0.001406423808
  7      -0.001391884446
  8      -0.001380827994
  9       0.000510190500
 10       0.000564882197
 11       0.000527280940
 12      -0.000854754289
 13      -0.000936533214
 14      -0.000876049156
 15      -0.000824338628
 16      -0.001015300036
 17      -0.000909378172
 18      -0.000000451708
 19       0.000030122443
 20       0.000018977879
 21       0.000007742984
 22       0.000024545050
 23       0.000003469595
 24       0.000063653429
 25       0.000061746230
 26      -0.000014388797
 27       0.000060112706
 28      -0.000009723150
 29       0.000410411096
 30       0.000418800437
 31      -0.000020319763
 32       0.000425408563
 33      -0.000000558706
 34       0.000002693025
 35      -0.000003631059
 36       0.000007433709
 37       0.000031423633
 38      -0.000000094734
 39       0.000003935061
 40       0.000076096351
 41      -0.000051507019
 42      -0.000037298033
 43      -0.000000706603
 44      -0.000106216192
 45       0.000069353740
 46      -0.000051501473
 47      -0.000018924207
 48       0.000002483426
 49       0.000003170006
 50      -0.000001090774
 51      -0.000008187159
 52       0.000003862679
 53      -0.000013397401
 54      -0.000015064711
 55      -0.000002803822
 56      -0.262462167125
 57      -0.000169703501
 58      -0.004370312993
 59       0.000765820478
 60      -0.001621184288
 61      -0.000448479850
 62      -0.000423490793
 63       0.000496500873
 64       0.000186234542
 65       0.000234119625
 66      -0.000103723385
 67      -0.000303481003
 68      -0.000372659914
 69       0.000180762429
 70      -0.000336002034
 71      -0.000519996187
 72       0.000031060220
 73      -0.000020214206
 74       0.000021998426
 75       0.000011039390
 76      -0.000007759219
 77       0.000008304079
 78       0.000039507689
 79       0.000018367060
 80       0.000018512467
 81       0.000015560115
 82      -0.000017197488
 83       0.000039666492
 84       0.000130669781
 85       0.000132864937
 86       0.000016000981
 87      -0.000144764574
 88       0.000002327308
 89       0.000017024524
 90       0.000009879676
 91      -0.000008052697
 92      -0.000010223358
 93       0.000012862065
 94      -0.000008636366
 95      -0.000055713195
 96      -0.000014150755
 97       0.000000102732
 98       0.000000970409
 99       0.000033467757
100       0.000015061589
101       0.000001674626
102       0.000002694571
103      -0.000007266783
104      -0.000006090388
105       0.000001554500
106       0.000017970211
107      -0.000007449030
108      -0.000002745362
109       0.000009573619
110       0.000002736883
111      -0.036263494677
112      -0.000025082374
113      -0.000605130642
114       0.000099473445
115      -0.000210417605
116      -0.000048179975
117       0.000105770552
118      -0.000034423977
119       0.000047297972
120       0.000053430809
121       0.000072032166
122      -0.000072090076
123      -0.000069861928
124      -0.000107565954
125      -0.000137567568
126      -0.000257979737
127      -0.000229938167
128       0.000014362486
129       0.000016153460
130       0.000007548674
131       0.000016890228
132       0.000013373418
133      -0.000030287382
134      -0.000002335254
135       0.000002330194
136      -0.000035554371
137       0.000002634148
138      -0.000025008543
139      -0.000016555467
140       0.000018793445
141      -0.000029366727
142       0.000016994079
143       0.000001700188
144      -0.000018613767
145       0.000002013288
146      -0.000018740994
147      -0.000001476705
148      -0.000013568301
149      -0.000004597156
150      -0.000020466899
151       0.000010198257
152       0.000022645978
153       0.000004858614
154       0.000003965339
155      -0.000003871735
156       0.000031019050
157       0.000002289504
158      -0.000006557340
159       0.000004316893
160      -0.000002599164
161       0.000009710501
162      -0.000014217565
163       0.000006683193
164      -0.000001614927
165       0.000005192301
166      -0.522362571406
167      -0.000339267568
168      -0.008701339393
169       0.001507430020
170      -0.003266740452
171       0.000941593465
172      -0.000886984924
173      -0.000895077727
174      -0.000284713000
175       0.000388594379
176       0.000365034820
177       0.000483875877
178      -0.000634413850
179      -0.000599946042
180       0.000356657386
181      -0.000754070791
182      -0.000661924954
183       0.000006108375
184       0.000026088467
185      -0.000002125558
186      -0.000016796049
187       0.000021115717
188      -0.000013422030
189       0.000038495545
190      -0.000038757766
191       0.000034170711
192       0.000039499793
193      -0.000008166044
194       0.000268825674
195      -0.000274320145
196       0.000033287558
197       0.000269265218
198       0.000000194019
199      -0.000004399837
200      -0.000010962845
201       0.000018001432
202      -0.000020478237
203      -0.000000187466
204       0.000008547773
205       0.000040725314
206       0.000047072854
207      -0.000015969907
208      -0.000002608620
209       0.000067774942
210      -0.000060534436
211      -0.000024766553
212       0.000013086166
213       0.000002779163
214      -0.000004727993
215       0.000003574641
216      -0.000001873602
217      -0.000004235790
218       0.000017915466
219       0.000008849090
220      -0.000005285266
 Sym= A
 Ene=       -15.7476958400
 Spin= Alpha
 Occup=  2.0000
  1       0.087497915853
  2       0.000053600882
  3       0.001453718623
  4      -0.000253071248
  5       0.000591810921
  6      -0.000122355118
  7      -0.000143324026
  8      -0.000191603285
  9       0.000117775365
 10       0.000081714404
 11      -0.000016281239
 12      -0.000187554620
 13      -0.000134728904
 14       0.000011055152
 15      -0.000318399263
 16      -0.000181011148
 17       0.000180777049
 18       0.000021444738
 19       0.000006924131
 20       0.000015564938
 21      -0.000006014096
 22      -0.000015713167
 23      -0.000044046410
 24       0.000007443283
 25       0.000007011585
 26       0.000012610708
 27       0.000007871094
 28      -0.000042857294
 29       0.000044177652
 30       0.000040732690
 31       0.000010890843
 32       0.000058222341
 33      -0.000002640619
 34       0.000011424402
 35       0.000017002224
 36      -0.000006309129
 37       0.000003946005
 38       0.000010787532
 39      -0.000013591804
 40       0.000041424483
 41       0.000009276219
 42      -0.000000382960
 43       0.000000826500
 44      -0.000012954412
 45      -0.000012955033
 46       0.000000407705
 47       0.000001954484
 48      -0.000006770783
 49      -0.000008003959
 50       0.000001783679
 51      -0.000017344217
 52      -0.000000387442
 53       0.000008245324
 54      -0.000006687941
 55       0.000001736934
 56      -0.817493151340
 57      -0.000528042917
 58      -0.013603960964
 59       0.002346841989
 60      -0.005093287174
 61      -0.001406652396
 62      -0.001430013197
 63       0.001418486242
 64       0.000551117580
 65       0.000515294682
 66      -0.000560474006
 67      -0.000910431106
 68      -0.000858522258
 69       0.000923652905
 70      -0.000957475155
 71      -0.000820149407
 72       0.000989434998
 73       0.000004771279
 74       0.000019719787
 75       0.000028395161
 76       0.000006724760
 77      -0.000029225491
 78      -0.000014276259
 79       0.000059513417
 80       0.000060079395
 81      -0.000014335082
 82      -0.000057310774
 83      -0.000011022126
 84       0.000426184601
 85       0.000423826137
 86      -0.000010091322
 87      -0.000421729931
 88       0.000000517892
 89      -0.000005508761
 90       0.000000176203
 91       0.000006421312
 92      -0.000031683854
 93      -0.000005673648
 94       0.000002909522
 95      -0.000068860573
 96      -0.000044473042
 97      -0.000054955260
 98      -0.000000824727
 99       0.000105477288
100       0.000057588036
101      -0.000069054431
102       0.000019810796
103       0.000005349340
104       0.000004433207
105      -0.000001573045
106       0.000005459689
107       0.000013430884
108      -0.000005692005
109       0.000014701434
110      -0.000001470857
111       0.157881900546
112       0.000100079514
113       0.002626589022
114      -0.000446358624
115       0.001042665978
116       0.000315484277
117      -0.000264169430
118       0.000242779678
119      -0.000034959722
120       0.000121172136
121      -0.000165299557
122       0.000078063971
123      -0.000203234283
124       0.000267485576
125      -0.000088654522
126      -0.000243593377
127       0.000408021064
128      -0.000016742853
129       0.000007775574
130       0.000012766453
131       0.000014561558
132      -0.000017802819
133       0.000034990484
134       0.000014611176
135      -0.000013997547
136      -0.000029644663
137      -0.000013801497
138       0.000029599953
139       0.000084671061
140      -0.000088158934
141      -0.000025750778
142      -0.000079825009
143      -0.000001627428
144       0.000004711778
145      -0.000018308438
146      -0.000015241815
147       0.000006130680
148       0.000006218331
149       0.000013736334
150       0.000010334225
151       0.000028210761
152      -0.000001797303
153       0.000003117885
154      -0.000022204234
155      -0.000037977247
156      -0.000008625576
157      -0.000006206746
158       0.000005517418
159      -0.000007666576
160      -0.000003014841
161      -0.000010284233
162      -0.000003391140
163       0.000014779592
164      -0.000000056693
165       0.000004390661
166       0.534122050510
167       0.000342810041
168       0.008888595777
169      -0.001523359093
170       0.003412252463
171      -0.000912569912
172       0.000962805696
173       0.000906329314
174       0.000384015056
175      -0.000297281120
176      -0.000390897310
177      -0.000638561035
178       0.000512286046
179       0.000648237261
180      -0.000718777537
181       0.000385283972
182       0.000743579606
183      -0.000010490994
184      -0.000001618408
185       0.000022149307
186      -0.000015008414
187      -0.000023905479
188       0.000021950220
189      -0.000042288534
190       0.000042864092
191       0.000031434133
192      -0.000042787181
193       0.000016088452
194      -0.000283758111
195       0.000279110730
196       0.000026543763
197      -0.000277730945
198      -0.000000557665
199      -0.000013252915
200      -0.000000530131
201       0.000015107933
202       0.000020764268
203      -0.000009957534
204      -0.000002562643
205      -0.000036076655
206      -0.000021213285
207       0.000046753026
208      -0.000002598418
209      -0.000071578296
210       0.000031240409
211       0.000061094651
212      -0.000013834401
213      -0.000006642122
214       0.000004077429
215       0.000003343798
216      -0.000001268302
217      -0.000017012711
218       0.000001241671
219      -0.000008499539
220      -0.000004518404
 Sym= A
 Ene=        -1.6517938280
 Spin= Alpha
 Occup=  2.0000
  1       0.005385618101
  2      -0.141090068415
  3      -0.107955377263
  4      -0.198230896368
  5      -0.042016071797
  6       0.017922081993
  7       0.017904305741
  8       0.017931025830
  9       0.034898250448
 10       0.034844711078
 11       0.034934433044
 12       0.040540771244
 13       0.040564166311
 14       0.040504424232
 15       0.006353421522
 16       0.006383221045
 17       0.006322053497
 18      -0.000000100663
 19      -0.001351644522
 20      -0.001335289694
 21      -0.000001034209
 22      -0.001319935711
 23       0.000019777809
 24      -0.006762354234
 25      -0.006687414302
 26       0.000007620484
 27      -0.006614350793
 28       0.000085911019
 29      -0.008290430720
 30      -0.008272529109
 31       0.000047131790
 32      -0.008256619287
 33      -0.000189893940
 34       0.000127649186
 35       0.000111859741
 36       0.000012025855