[Molden Format]
[Title]
 Molden file created by orca_2mkl for BaseName=./N4

[Atoms] AU
N    1   7         -1.2141710420         0.0000000000         1.1929116530 
N    2   7          1.3902700099        -0.8023365584         0.5821231050 
N    3   7         -0.5808226486        -0.8023365584        -1.3773975410 
N    4   7          0.4047236807         1.6046731167        -0.3976372170 
[GTO]
  1 0
s   5 1.0 
     1712.8415853000        -1.0337585405
      257.6481267700        -1.8620740805
       58.4582458530        -2.7290401880
       16.1983679050        -2.6956734544
        5.0052600809        -1.0640914367
s   1 1.0 
        0.5873185657         0.4781513534
s   1 1.0 
        0.1876459225         0.2031956662
p   3 1.0 
       13.5714702330        -2.1850243557
        2.9257372874        -1.7466999024
        0.7992775075        -0.8114650516
p   1 1.0 
        0.2195434803         0.2142105067
d   1 1.0 
        1.0000000000         2.8508218814

  2 0
s   5 1.0 
     1712.8415853000        -1.0337585405
      257.6481267700        -1.8620740805
       58.4582458530        -2.7290401880
       16.1983679050        -2.6956734544
        5.0052600809        -1.0640914367
s   1 1.0 
        0.5873185657         0.4781513534
s   1 1.0 
        0.1876459225         0.2031956662
p   3 1.0 
       13.5714702330        -2.1850243557
        2.9257372874        -1.7466999024
        0.7992775075        -0.8114650516
p   1 1.0 
        0.2195434803         0.2142105067
d   1 1.0 
        1.0000000000         2.8508218814

  3 0
s   5 1.0 
     1712.8415853000        -1.0337585405
      257.6481267700        -1.8620740805
       58.4582458530        -2.7290401880
       16.1983679050        -2.6956734544
        5.0052600809        -1.0640914367
s   1 1.0 
        0.5873185657         0.4781513534
s   1 1.0 
        0.1876459225         0.2031956662
p   3 1.0 
       13.5714702330        -2.1850243557
        2.9257372874        -1.7466999024
        0.7992775075        -0.8114650516
p   1 1.0 
        0.2195434803         0.2142105067
d   1 1.0 
        1.0000000000         2.8508218814

  4 0
s   5 1.0 
     1712.8415853000        -1.0337585405
      257.6481267700        -1.8620740805
       58.4582458530        -2.7290401880
       16.1983679050        -2.6956734544
        5.0052600809        -1.0640914367
s   1 1.0 
        0.5873185657         0.4781513534
s   1 1.0 
        0.1876459225         0.2031956662
p   3 1.0 
       13.5714702330        -2.1850243557
        2.9257372874        -1.7466999024
        0.7992775075        -0.8114650516
p   1 1.0 
        0.2195434803         0.2142105067
d   1 1.0 
        1.0000000000         2.8508218814

[5D]
[9G]
[MO]
 Sym=     1a
 Ene= -1.57527328407820E+01
 Spin= Alpha
 Occup= 2.000000
  1       0.502165904113
  2      -0.017093362658
  3       0.004755142479
  4       0.001457597423
  5       0.000000356537
  6      -0.001440974312
  7       0.001679662869
  8       0.000007529655
  9      -0.001704659462
 10       0.000168579775
 11      -0.000636950224
 12       0.000003649507
 13       0.000328226759
 14       0.000000476398
 15       0.506759765868
 16      -0.017206766632
 17       0.004732232522
 18      -0.001678818256
 19       0.000970936760
 20      -0.000707892387
 21      -0.001891881822
 22       0.001113337228
 23      -0.000832074656
 24      -0.000247262635
 25       0.000347576743
 26      -0.000203493176
 27       0.000277354354
 28      -0.000484960249
 29       0.482586943153
 30      -0.016489290438
 31       0.004411139505
 32       0.000674677160
 33       0.000934874088
 34       0.001604670205
 35       0.000787005034
 36       0.001102242092
 37       0.001879426968
 38       0.000376284879
 39       0.000359623672
 40       0.000500531855
 41      -0.000057476378
 42       0.000204710327
 43       0.490734553001
 44      -0.016718918519
 45       0.004472093096
 46      -0.000476760030
 47      -0.001890853525
 48       0.000467260966
 49      -0.000540082882
 50      -0.002170840460
 51       0.000524866045
 52      -0.000315995224
 53      -0.000074577313
 54      -0.000300277134
 55      -0.000531567406
 56       0.000278180239
 Sym=     1a
 Ene= -1.57520706312799E+01
 Spin= Alpha
 Occup= 2.000000
  1       0.596778434747
  2      -0.019613916926
  3       0.015015408888
  4       0.001685496811
  5      -0.000042780890
  6      -0.001557000218
  7       0.004716263062
  8      -0.000725502561
  9      -0.002576794398
 10       0.000295546885
 11       0.000323693699
 12      -0.000079455180
 13      -0.000482713690
 14       0.000273699050
 15      -0.777862028181
 16       0.025517074879
 17      -0.019641814195
 18       0.002447724495
 19      -0.001391353974
 20       0.000985342998
 21       0.005956408436
 22      -0.002915122019
 23       0.001529474749
 24      -0.000283388280
 25       0.000079046749
 26      -0.000042242101
 27       0.000414200395
 28      -0.000405905209
 29       0.128954742622
 30      -0.004251308570
 31       0.003209847668
 32       0.000310612309
 33       0.000173826151
 34       0.000374305571
 35       0.002471977558
 36      -0.000369234237
 37       0.000550739961
 38       0.000190109718
 39      -0.000711547973
 40       0.000241798383
 41      -0.000330922862
 42      -0.000085370993
 43       0.065765177328
 44      -0.002157982927
 45       0.001553258667
 46       0.000087517404
 47      -0.000278786342
 48       0.000052910507
 49       0.002121426648
 50      -0.001082837233
 51       0.000019055153
 52       0.000141653317
 53      -0.000350463178
 54       0.000101856919
 55       0.000325907073
 56       0.000668999552
 Sym=     1a
 Ene= -1.57520461496443E+01
 Spin= Alpha
 Occup= 2.000000
  1       0.490740459759
  2      -0.016104513629
  3       0.012468567871
  4       0.001321318050
  5       0.000117176420
  6      -0.001365410813
  7       0.002665185959
  8       0.001803575206
  9      -0.003350618288
 10      -0.000182034867
 11       0.000418005846
 12       0.000403422386
 13       0.000062388887
 14      -0.000486459016
 15       0.306161408164
 16      -0.010023820665
 17       0.007746886309
 18      -0.000880045181
 19       0.000651205605
 20      -0.000470955341
 21      -0.000879643216
 22       0.002661723998
 23      -0.001910265110
 24       0.000025813514
 25      -0.000324602219
 26       0.000417096444
 27       0.000559576873
 28       0.000262611921
 29      -0.013959159846
 30       0.000454294053
 31      -0.000217115025
 32       0.000023527406
 33       0.000091318342
 34      -0.000139617341
 35       0.000574866717
 36       0.001774569269
 37      -0.001343351844
 38       0.000609608884
 39      -0.000063327651
 40      -0.000182924565
 41       0.000407036432
 42      -0.000378971982
 43      -0.804611608440
 44       0.026426867434
 45      -0.020202815893
 46       0.000740026373
 47       0.002917509096
 48      -0.000783618137
 49       0.001714594273
 50       0.006304963100
 51      -0.002416953228
 52      -0.000173443632
 53      -0.000188753479
 54      -0.000469994394
 55      -0.000322932327
 56       0.000201417444
 Sym=     1a
 Ene= -1.57520270477747E+01
 Spin= Alpha
 Occup= 2.000000
  1       0.364892305262
  2      -0.011961027857
  3       0.009314427328
  4       0.000922486717
  5      -0.000088869691
  6      -0.001091985710
  7       0.001049589260
  8      -0.001248767200
  9      -0.003422394165
 10      -0.000655652374
 11       0.000203798943
 12      -0.000432876990
 13       0.000082141695
 14       0.000192222085
 15       0.163384425927
 16      -0.005347509271
 17       0.004241630198
 18      -0.000522592664
 19       0.000201330681
 20      -0.000329312163
 21      -0.001287303073
 22      -0.000780637015
 23      -0.002218439557
 24      -0.000345794522
 25      -0.000658564137
 26      -0.000032000567
 27      -0.000271889280
 28      -0.000240953407
 29      -0.855895293045
 30       0.028146851015
 31      -0.021559871797
 32      -0.001099932012
 33      -0.001577988448
 34      -0.002717286676
 35      -0.002208313524
 36      -0.003638121294
 37      -0.006033445873
 38       0.000350336558
 39       0.000186260016
 40       0.000465066150
 41      -0.000111290066
 42       0.000162248791
 43       0.299570579555
 44      -0.009835341202
 45       0.007732074073
 46      -0.000292091149
 47      -0.001119920450
 48       0.000133659207
 49      -0.000912300386
 50      -0.002944528319
 51      -0.001455590999
 52       0.000253539657
 53      -0.000251655466
 54      -0.000569110474
 55       0.000362632301
 56      -0.000289227320
 Sym=     1a
 Ene= -1.66780477767258E+00
 Spin= Alpha
 Occup= 2.000000
  1      -0.130043125440
  2      -0.262056364228
  3      -0.070310283117
  4       0.095995031719
  5      -0.000012050621
  6      -0.096401959943
  7      -0.026863013396
  8      -0.000001390581
  9       0.026621672409
 10      -0.005714217276
 11       0.020082498050
 12      -0.000045814781
 13      -0.010089465492
 14      -0.000043063099
 15      -0.129180214802
 16      -0.260399773241
 17      -0.069257772288
 18      -0.109729502636
 19       0.063574975836
 20      -0.046812709518
 21       0.030254762602
 22      -0.017595154567
 23       0.012793181812
 24       0.007503656234
 25      -0.011219859949
 26       0.006473494485
 27      -0.008780520137
 28       0.015263102025
 29      -0.130905746839
 30      -0.263708903218
 31      -0.071429483051
 32       0.046123540806
 33       0.064687973328
 34       0.111486091040
 35      -0.013052501798
 36      -0.018078948481
 37      -0.031274356010
 38      -0.011443364067
 39      -0.011089916540
 40      -0.015527514136
 41       0.002129105530
 42      -0.006462315652
 43      -0.130031962873
 44      -0.262033611325
 45      -0.070330964778
 46      -0.032473524897
 47      -0.128249599603
 48       0.031644285249
 49       0.008894580773
 50       0.035667263196
 51      -0.008941561996
 52       0.009770712522
 53       0.002230600700
 54       0.008835528139
 55       0.016672092360
 56      -0.009014654563
 Sym=     1a
 Ene= -1.04590857075681E+00
 Spin= Alpha
 Occup= 2.000000
  1       0.159545183718
  2       0.338203260489
  3       0.307851494540
  4       0.089768454749
  5       0.027671558387
  6       0.107145660173
  7       0.019868726499
  8      -0.006970395487
  9      -0.071245219982
 10       0.020690152353
 11      -0.003238669160
 12       0.004910737058
 13      -0.009228056640
 14      -0.001362454759
 15      -0.171029058469
 16      -0.362431409895
 17      -0.329760855337
 18       0.065256933554
 19       0.100825143043
 20      -0.052313220681
 21       0.036317470169
 22      -0.057187422059
 23       0.036492216482
 24      -0.001510868531
 25      -0.004849992543
 26       0.010532211857
 27       0.016242873907
 28       0.008477199159
 29       0.093530778480
 30       0.198282285884
 31       0.180943604211
 32       0.166636959774
 33      -0.014077572990
 34      -0.069853621808
 35      -0.031184560807
 36       0.020756896973
 37       0.047475559495
 38       0.016167421518
 39      -0.019464088270
 40       0.008180386578
 41      -0.008587155604
 42      -0.009768386754
 43      -0.083400265295
 44      -0.176694341923
 45      -0.161630016145
 46       0.175886340584
 47      -0.045541951880
 48       0.019746284355
 49      -0.038186689858
 50       0.042466759936
 51      -0.012727857168
 52       0.001490238610
 53      -0.007805044176
 54       0.006128252080
 55       0.013140842263
 56       0.024971261527
 Sym=     1a
 Ene= -1.04246956273383E+00
 Spin= Alpha
 Occup= 2.000000
  1      -0.043940979080
  2      -0.093152203606
  3      -0.085549166474
  4       0.002203648366
  5       0.193351120154
  6      -0.001570246581
  7      -0.012370792624
  8      -0.050886111264
  9       0.012721988808
 10       0.001211492090
 11       0.002576005080
 12       0.022097130182
 13       0.002073226910
 14      -0.022244831847
 15       0.121144755774
 16       0.256825269669
 17       0.234947666729
 18       0.063170037638
 19       0.140291518886
 20       0.064699019750
 21      -0.054391825423
 22      -0.014821562232
 23      -0.033075996452
 24       0.006480029730
 25       0.013225154993
 26       0.004520497563
 27       0.019523219655
 28       0.011365025312
 29       0.120554022140
 30       0.255551002421
 31       0.235527446593
 32      -0.064524562824
 33       0.141726879738
 34      -0.064096440142
 35       0.032932608045
 36      -0.015239286742
 37       0.055266793988
 38       0.013787168414
 39       0.013164144306
 40      -0.011505430958
 41       0.015639653727
 42      -0.004522756053
 43      -0.197759451598
 44      -0.419228079140
 45      -0.384935613232
 46      -0.070345536195
 47       0.022006090270
 48       0.068644083536
 49       0.036741098852
 50       0.066471391493
 51      -0.035965273573
 52      -0.002232320926
 53       0.007185277601
 54       0.010169845580
 55      -0.004257474967
 56      -0.010455213662
 Sym=     1a
 Ene= -1.03908110050211E+00
 Spin= Alpha
 Occup= 2.000000
  1      -0.159063287278
  2      -0.337219848805
  3      -0.312272334671
  4       0.103513415470
  5      -0.025672447551
  6       0.093509668479
  7      -0.071499051262
  8       0.007075108944
  9       0.019189029094
 10       0.018520075885
 11       0.002753795988
 12      -0.001321577558
 13      -0.013205734536
 14       0.004637335095
 15      -0.094604840528
 16      -0.200547433984
 17      -0.185234359976
 18      -0.067050987169
 19       0.014101632830
 20       0.164672171068
 21       0.047823565031
 22      -0.021023414275
 23      -0.031101788504
 24       0.015619171340
 25       0.018969545485
 26      -0.009509831397
 27      -0.009531792990
 28       0.008140542426
 29       0.170920367662
 30       0.362470924541
 31       0.335814774325
 32      -0.051426308064
 33      -0.100647640944
 34       0.069585226420
 35       0.036073572431
 36       0.058310483408
 37       0.035924319269
 38      -0.015234019255
 39       0.004583542185
 40       0.008277844642
 41      -0.006878518480
 42       0.010488470793
 43       0.081385062664
 44       0.172632414483
 45       0.159064831422
 46       0.019598851831
 47       0.043933819087
 48       0.178753407649
 49      -0.012671956535
 50      -0.041277840075
 51      -0.040106815719
 52      -0.010440722844
 53       0.008004593827
 54       0.025283172810
 55      -0.007684473621
 56       0.006141577031
 Sym=     1a
 Ene= -6.94095054676356E-01
 Spin= Alpha
 Occup= 2.000000
  1       0.064209785908
  2       0.128755456987
  3       0.184245915157
  4       0.206390492274
  5       0.000003949088
  6      -0.202863650761
  7      -0.100373556362
  8      -0.000006129436
  9       0.098009565683
 10      -0.008486757886
 11       0.031166076344
 12       0.000108638240
 13      -0.015879335722
 14       0.000106760237
 15       0.064196799296
 16       0.128784652814
 17       0.184643059483
 18      -0.233977403573
 19       0.134960239402
 20      -0.097969174762
 21       0.113070535157
 22      -0.065279213360
 23       0.047111368948
 24       0.011626291590
 25      -0.017166437328
 26       0.009963605661
 27      -0.013775604361
 28       0.023773498642
 29       0.064207648486
 30       0.128689962139
 31       0.183767712827
 32       0.099739337540
 33       0.137855234479
 34       0.236615952260
 35      -0.048733105297
 36      -0.066981678438
 37      -0.115072714172
 38      -0.017651586145
 39      -0.017463075383
 40      -0.024014526154
 41       0.003398577485
 42      -0.010112374699
 43       0.064207838744
 44       0.128747755983
 45       0.184236187027
 46      -0.068892348760
 47      -0.272807319681
 48       0.067551009447
 49       0.033210226407
 50       0.132242765328
 51      -0.032936999341
 52       0.015031208224
 53       0.003465270509
 54       0.013724570573
 55       0.025951340466
 56      -0.013986344862
 Sym=     1a
 Ene= -5.78090773062538E-01
 Spin= Alpha
 Occup= 2.000000
  1      -0.072107761166
  2      -0.167317647496
  3      -0.125733654650
  4      -0.017844408195
  5      -0.099777232598
  6       0.282814829964
  7       0.041519041269
  8       0.053924672552
  9      -0.184508413548
 10       0.022191352719
 11      -0.004043608380
 12      -0.012081453432
 13      -0.005826652234
 14       0.004931363236
 15       0.118339879422
 16       0.274893428859
 17       0.206073313647
 18      -0.246084112020
 19       0.172514967356
 20      -0.184126450270
 21       0.193151696568
 22      -0.127318210402
 23       0.124705862474
 24      -0.002458622521
 25      -0.008921731738
 26       0.007696030484
 27      -0.000973616164
 28       0.006803403093
 29      -0.023755410258
 30      -0.055040941158
 31      -0.041600870021
 32       0.202159968525
 33      -0.162160111196
 34      -0.076443163983
 35      -0.104205390250
 36       0.094905208602
 37       0.053054118992
 38       0.002349425210
 39      -0.016593844806
 40       0.016122574125
 41      -0.017512143889
 42      -0.012657711774
 43      -0.021959657907
 44      -0.050875736021
 45      -0.038781449603
 46       0.258312528799
 47       0.000499270608
 48      -0.001951844954
 49      -0.141777393540
 50      -0.012817029140
 51       0.004025345213
 52      -0.005588041674
 53      -0.001429110486
 54      -0.000172843202
 55       0.015271031592
 56       0.026417093002
 Sym=     1a
 Ene= -5.76975562055492E-01
 Spin= Alpha
 Occup= 2.000000
  1       0.070517760578
  2       0.163819788374
  3       0.122157638648
  4       0.142783731982
  5      -0.215099739768
  6      -0.148195001449
  7      -0.108784682209
  8       0.116377042756
  9       0.111471805294
 10       0.001093384869
 11       0.008403290893
 12      -0.018531318127
 13       0.001979346508
 14       0.017437929151
 15       0.026101007159
 16       0.060631842831
 17       0.045542300919
 18      -0.200851089876
 19      -0.146372706747
 20       0.060342754887
 21       0.120979454944
 22       0.070730899265
 23      -0.027087783640
 24       0.012952761833
 25      -0.000664614065
 26      -0.010353522618
 27      -0.022530503434
 28      -0.012107975568
 29       0.021887210638
 30       0.050847372664
 31       0.037560860819
 32      -0.070181543175
 33      -0.166870911854
 34       0.207814519600
 35       0.033253475566
 36       0.084273418377
 37      -0.124615488899
 38      -0.027501402778
 39       0.000043917694
 40       0.012507838871
 41      -0.001731901592
 42       0.010826899462
 43      -0.118496506463
 44      -0.275309743215
 45      -0.205156791291
 46       0.045864341498
 47       0.348920682470
 48      -0.024791871120
 49      -0.043376656546
 50      -0.259170387139
 51       0.030187762342
 52      -0.006764598499
 53      -0.000375974972
 54       0.002094437402
 55      -0.011435453398
 56       0.000098004286
 Sym=     1a
 Ene= -5.75796362138939E-01
 Spin= Alpha
 Occup= 2.000000
  1       0.070407775047
  2       0.163793938455
  3       0.120954845650
  4       0.273268999176
  5       0.112258005038
  6      -0.014147530493
  7      -0.179856570683
  8      -0.060730258166
  9       0.039401949750
 10       0.016043090885
 11       0.003649102946
 12       0.005268513081
 13      -0.015625299493
 14      -0.013214103337
 15       0.023708470372
 16       0.055224035782
 17       0.040600746204
 18      -0.071390393115
 19       0.162724304529
 20       0.192493421300
 21       0.051282373444
 22      -0.094867708983
 23      -0.098994217431
 24       0.015886669883
 25       0.015529534519
 26      -0.012427554434
 27       0.007199678118
 28       0.016124048524
 29      -0.118226926434
 30      -0.274743926353
 31      -0.203382574647
 32      -0.176092597550
 33      -0.177184227445
 34      -0.248785898007
 35       0.121113295693
 36       0.132188367479
 37       0.195995328930
 38      -0.000236188077
 39       0.008098726253
 40       0.006540476236
 41       0.002039525990
 42       0.007847361932
 43       0.024623739819
 44       0.057362510592
 45       0.041793923981
 46      -0.006591689021
 47      -0.008904955634
 48       0.272291460386
 49       0.007590942508
 50       0.020061573261
 51      -0.152031602757
 52      -0.015664598921
 53       0.002441790114
 54       0.027244990640
 55      -0.002658274889
 56      -0.000281739645
 Sym=     1a
 Ene= -5.49742093378010E-01
 Spin= Alpha
 Occup= 2.000000
  1      -0.002080034962
  2      -0.005464206548
  3      -0.001287287980
  4      -0.165175948028
  5      -0.230303198168
  6      -0.159077197618
  7       0.110944472559
  8       0.152735103974
  9       0.104098203544
 10      -0.022904906784
 11      -0.007824015177
 12      -0.024154073958
 13      -0.002013138367
 14       0.002582945851
 15       0.001232814603
 16       0.002726268568
 17       0.002021313552
 18       0.152361661442
 19       0.298786728117
 20       0.036013753718
 21      -0.100134141526
 22      -0.197588134464
 23      -0.023698982356
 24       0.015683218048
 25       0.006995994739
 26       0.018908965964
 27       0.023982300053
 28       0.003264846795
 29      -0.001172113213
 30      -0.003225385734
 31      -0.000333357370
 32      -0.302856213377
 33       0.022764689880
 34       0.110061382840
 35       0.201699320405
 36      -0.014386781253
 37      -0.072139264835
 38      -0.015897570319
 39       0.029067762290
 40      -0.008152632348
 41      -0.002492005588
 42      -0.002441774753
 43       0.002242151126
 44       0.005199601129
 45       0.003120284048
 46       0.323663853130
 47      -0.086407534209
 48       0.011488065031
 49      -0.213909779098
 50       0.058382892682
 51      -0.007892556839
 52       0.011237485140
 53      -0.020535667901
 54       0.009282496271
 55       0.004402543285
 56       0.024062726666
 Sym=     1a
 Ene= -5.44430888883668E-01
 Spin= Alpha
 Occup= 2.000000
  1       0.001754302213
  2       0.004712745688
  3       0.000708957150
  4       0.169943466585
  5      -0.235906576768
  6       0.165394068165
  7      -0.115038591402
  8       0.157853436250
  9      -0.109349560672
 10       0.010179031645
 11      -0.007502489367
 12      -0.002828992443
 13      -0.021206451659
 14       0.024483926327
 15       0.001003414353
 16       0.002834674210
 17       0.000081918399
 18      -0.123285396062
 19       0.019288217256
 20       0.312491772516
 21       0.083297726180
 22      -0.013517663629
 23      -0.208244168468
 24       0.007090334222
 25       0.029052284664
 26       0.001606308758
 27      -0.016070619907
 28       0.008140641706
 29      -0.001135017990
 30      -0.002489216267
 31      -0.001884054590
 32      -0.040243373089
 33       0.282896870027
 34      -0.152345844172
 35       0.027095736166
 36      -0.189663698452
 37       0.102673077629
 38       0.011360569070
 39       0.006771138547
 40      -0.002013885633
 41       0.025508134243
 42      -0.018436935665
 43      -0.001815944240
 44      -0.004206763224
 45      -0.002411975933
 46      -0.007604568976
 47      -0.070663872690
 48      -0.317849788329
 49       0.004833437532
 50       0.046324390515
 51       0.213166957410
 52      -0.003091015624
 53      -0.020368602974
 54      -0.022974264183
 55       0.011649870783
 56      -0.009190873282
 Sym=     1a
 Ene= 1.84002558280459E-01
 Spin= Alpha
 Occup= 0.000000
  1      -0.003962280795
  2      -0.009408606941
  3      -0.029963138186
  4       0.233140280749
  5      -0.307465345275
  6       0.215603218660
  7      -0.342515345757
  8       0.443818081335
  9      -0.305504170036
 10      -0.001350218390
 11       0.004196089350
 12      -0.001938048446
 13       0.007810515549
 14      -0.008889587458
 15       0.003308198627
 16       0.007773856688
 17       0.025876462810
 18       0.209451343960
 19       0.067803721322
 20      -0.367932118729
 21      -0.308449249552
 22      -0.093977180033
 23       0.529612715051
 24      -0.002068663860
 25       0.009674392952
 26       0.001175969746
 27      -0.007254459091
 28       0.002724171753
 29       0.000709999746
 30       0.001698773124
 31       0.005191226169
 32      -0.163415661059
 33       0.129247933506
 34      -0.009586815716
 35       0.228433030917
 36      -0.182983977422
 37       0.016623995349
 38       0.000771672824
 39      -0.003179161541
 40       0.000273218600
 41      -0.001483277143
 42       0.003308077270
 43      -0.000067146987
 44      -0.000109109792
 45      -0.001112956243
 46      -0.251605600456
 47       0.100076907874
 48       0.150360324376
 49       0.354943422872
 50      -0.140993112467
 51      -0.213214940656
 52       0.001635659379
 53      -0.007432178288
 54       0.000164750724
 55       0.000774280922
 56       0.001511623969
 Sym=     1a
 Ene= 1.86039994021960E-01
 Spin= Alpha
 Occup= 0.000000
  1       0.000734130006
  2       0.001740410128
  3       0.005603341702
  4      -0.042423682661
  5      -0.009955188408
  6      -0.039171535288
  7       0.062254125544
  8       0.012636411952
  9       0.055342550002
 10       0.000586736411
 11      -0.000335080855
 12       0.001025600297
 13      -0.000760397444
 14       0.000884605835
 15      -0.000524090762
 16      -0.001099627058
 17      -0.005679609985
 18      -0.164295287789
 19      -0.352459210439
 20      -0.102246894746
 21       0.238263303034
 22       0.505964368464
 23       0.146685897306
 24       0.006332801472
 25       0.002779300187
 26       0.006954874110
 27       0.004930098725
 28      -0.001088695026
 29      -0.000532336460
 30      -0.001120177140
 31      -0.005815255816
 32      -0.095331224210
 33       0.361500598329
 34      -0.166557588347
 35       0.138177628105
 36      -0.523566918292
 37       0.238784181514
 38      -0.000962451242
 39      -0.002956413775
 40      -0.001525236939
 41      -0.008442660396
 42       0.007441167698
 43       0.000322147247
 44       0.000478841615
 45       0.005891433331
 46       0.298440469609
 47       0.005444688946
 48       0.311590678851
 49      -0.429933001084
 50      -0.010511356273
 51      -0.449735107280
 52      -0.006255440456
 53      -0.000486163352
 54      -0.006991954211
 55       0.003785775987
 56      -0.006710234627
 Sym=     1a
 Ene= 1.87874354275212E-01
 Spin= Alpha
 Occup= 0.000000
  1       0.003893412559
  2       0.009217549042
  3       0.029957639247
  4      -0.221339612181
  5      -0.316020838479
  6      -0.204086704667
  7       0.324738195302
  8       0.455180882679
  9       0.287846745644
 10       0.007215375254
 11       0.003150781866
 12       0.008211640534
 13       0.003438171179
 14       0.001469879716
 15      -0.000841952249
 16      -0.002056704972
 17      -0.005733626494
 18       0.014377496941
 19       0.145462820302
 20       0.157998781027
 21      -0.017939463836
 22      -0.212983498181
 23      -0.234615733392
 24      -0.002877059454
 25      -0.004956413201
 26      -0.004004884927
 27       0.000030335111
 28      -0.000309207789
 29      -0.003085927175
 30      -0.007223806943
 31      -0.024841557194
 32       0.369088607320
 33       0.072819148280
 34      -0.182774055472
 35      -0.532709020416
 36      -0.108709398520
 37       0.256999104655
 38      -0.004818230090
 39       0.008046187125
 40      -0.002870583499
 41      -0.005154578538
 42      -0.001649666378
 43       0.000023922078
 44       0.000021163490
 45       0.000611619176
 46      -0.174512155159
 47       0.107509704818
 48       0.254666100575
 49       0.255492334000
 50      -0.158135637387
 51      -0.374715184869
 52       0.000182523856
 53      -0.009385355429
 54      -0.002563696749
 55       0.002628087245
 56       0.000218110481
 Sym=     1a
 Ene= 2.82567024412358E-01
 Spin= Alpha
 Occup= 0.000000
  1       0.114634201773
  2       0.271708210448
  3       1.108288310648
  4      -0.274704440468
  5       0.011371304978
  6       0.164443578970
  7       0.857119947116
  8      -0.060980226215
  9      -0.339291572579
 10       0.019386422867
 11      -0.013928782213
 12       0.006133426005
 13      -0.005297720886
 14       0.010981770804
 15      -0.145706187834
 16      -0.344242401338
 17      -1.414639374690
 18      -0.352965143238
 19       0.154332946877
 20      -0.114111550436
 21       1.023155383192
 22      -0.364131291566
 23       0.245767796176
 24       0.007432164261
 25      -0.015194711412
 26       0.010894227927
 27       0.005641555349
 28       0.011187611544
 29       0.048922560839
 30       0.116257711582
 31       0.471633716530
 32      -0.165916251398
 33      -0.027109164658
 34      -0.076758806317
 35       0.622844019388
 36       0.021246905472
 37       0.168767020280
 38       0.015189458962
 39      -0.024300655194
 40       0.012701431925
 41      -0.006640877772
 42       0.004872344654
 43      -0.017097676022
 44      -0.040472802720
 45      -0.165595332076
 46      -0.138440344527
 47      -0.013450288659
 48       0.004799997447
 49       0.563588658912
 50      -0.007139512807
 51      -0.003929219067
 52       0.009905980654
 53      -0.017346604738
 54       0.009199578252
 55       0.007131954171
 56       0.023422515281
 Sym=     1a
 Ene= 2.85925232414311E-01
 Spin= Alpha
 Occup= 0.000000
  1       0.034489372909
  2       0.081400008486
  3       0.340009175947
  4      -0.068170782352
  5      -0.120585830317
  6       0.064372993335
  7       0.185220454678
  8       0.531323498413
  9      -0.181417010838
 10       0.008339221429
 11       0.004849130595
 12       0.018879587909
 13       0.014684962004
 14      -0.019819779720
 15       0.067494401945
 16       0.158878833175
 17       0.667423291430
 18       0.091316482183
 19      -0.185965157904
 20       0.066929733950
 21      -0.160598797363
 22       0.671075363010
 23      -0.186155613970
 24       0.008265321059
 25       0.006723257422
 26       0.012588853299
 27       0.026455654582
 28      -0.001729136647
 29       0.063828577862