 --invoking executable--
/usr/local/cfour/bin/xjoda


   *************************************************************************
         <<<     CCCCCC     CCCCCC   |||     CCCCCC     CCCCCC   >>>
       <<<      CCC        CCC       |||    CCC        CCC         >>>
      <<<      CCC        CCC        |||   CCC        CCC            >>>
    <<<        CCC        CCC        |||   CCC        CCC              >>>
      <<<      CCC        CCC        |||   CCC        CCC            >>>
       <<<      CCC        CCC       |||    CCC        CCC         >>>
         <<<     CCCCCC     CCCCCC   |||     CCCCCC     CCCCCC   >>>
   *************************************************************************

     ****************************************************************
     * CFOUR Coupled-Cluster techniques for Computational Chemistry *
     ****************************************************************


   Department of Chemistry                Institut fuer Physikalische Chemie
   University of Texas at Austin          Universitaet Mainz
   Austin, TX  78712, USA                 D-55099 Mainz, Germany

                       Version 2.00beta

                     kbob-G41MT-S2                                     
                     Пт. мая 15 22:00:02 KRAT 2015                
                     integer*8 version is running

********************************************************************************
*                          Input from ZMAT file                                *
********************************************************************************
test HF/def2-SVP energy                                                         
N       0.5200      0.5300      0.5100                                          
N      -0.5200     -0.5200      0.5200                                          
N      -0.5200      0.5200     -0.5200                                          
N       0.5200     -0.5200     -0.5200                                          
                                                                                
*CFOUR(CALC=HF                                                                  
SCF_CONV=9                                                                      
BASIS=svp                                                                       
COORD=CARTESIAN)                                                                
                                                                                
********************************************************************************
    -------------------------------------------------------------------
                    CFOUR Control Parameters 
    -------------------------------------------------------------------
        External           Internal           Value            Units
          Name               Name
    -------------------------------------------------------------------
       ABCDTYPE             IABCDT         STANDARD     [  0]   ***   
       ANHARMONIC           IANHAR         OFF          [  0]   ***   
       ANH_ALGORIT          IANALG         STANDARD     [  0]   ***   
       ANH_DERIVAT          IANDER         SECOND       [  1]   ***   
       ANH_STEPSIZ          ICUBST             50000          x 10-6  
       ANH_SYMMETR          IANHSM         ABELIAN      [  0]   ***   
       AO_LADDERS           IAOLAD         SINGLEPASS   [  1]   ***   
       BASIS                IBASIS         svp          [ 28]   ***   
       BREIT                IBREIT         OFF          [  0]   ***   
       BRUCK_CONV           IBRTOL          10D-  4             ***   
       BRUECKNER            IBRKNR             OFF      [  0]   ***   
       BUFFERSIZE           IBUFFS            600               ***   
       CACHE_RECS           ICHREC             10               ***   
       CALCLEVEL            ICLLVL           SCF        [  0]   ***   
       CCORBOPT             ICCORB             OFF      [  0] x 0.01  
       CC_CONV              ICCCNV          10D-  7             ***   
       CC_EXPORDER          ICCEOR              0               ***   
       CC_EXTRAPOL          ICCEXT             DIIS     [  1]   ***   
       CC_MAXCYC            ICCCYC              0              cycles 
       CC_PROGRAM           ICCPRO         VCC          [  0]   ***   
       CHARGE               ICHRGE              0               ***   
       CHOLESKY             ICHOLE         OFF          [  0]   ***   
       CIS_CONV             ICISTL              5               ***   
       COMM_SIZE            IPSIZE            ***               ***   
       CONSTANT             ICONST         OLD          [  1]   ***   
       CONTINUUM            ICONTU         NONE         [  0]   ***   
       CONTRACTION          ICNTYP          GENERAL     [  1]   ***   
       COORDINATES          ICOORD         CARTESIAN    [  1]   ***   
       CPHF_CONVER          ICPHFT          10D- 16             ***   
       CPHF_MAXCYC          ICPHFC             64              cycles 
       CUBIC                ICUBIC         OFF          [  0]   ***   
       CURVILINEAR          ICURVY            OFF       [  0]   ***   
       DBOC                 IDBOC          OFF          [  0]   ***   
       DCT                  IDCT           OFF          [  0]   ***   
       DERIV_LEV            IDRLVL            ZERO      [  0]   ***   
       DIAG_MRCC            IEOMST          10D-  0             ***   
       DIFF_TYPE            IDIFTY         RELAXED      [  0]   ***   
       DIRECT               IDIRCT         OFF          [  0]   ***   
       DROPMO               IDRPMO      NONE         
       ECP                  IECP           OFF          [  0]   ***   
       EIGENVECTOR          IVEC                1               ***   
       EL_ANHARM            IELANH         OFF          [  0]   ***   
       EOMFOLLOW            IEOMSR         ENERGY       [  0]   ***   
       EOM_MRCC             IMRCCE         NEW          [  1]   ***   
       EOM_NONIT            EOMNON         OFF          [  0]   ***   
       EOM_NSING            IEOMSI          10D-  0             ***   
       EOM_NSTATES          IMRCCD         DAVIDSON     [  0]   ***   
       EOM_NTRIP            IEOMTR          10D-  0             ***   
       EOM_ORDER            IEXORD         ENERGY       [  0]   ***   
       ESTATE_CONV          IEXTOL          10D-  5             ***   
       ESTATE_DIAG          IEXDIG         ITERATIVE    [  0]   ***   
       ESTATE_LOCK          IESLOC         ON           [  1]   ***   
       ESTATE_MAXC          IEXMXC             20               ***   
       ESTATE_PROP          IEXPRP         OFF          [  0]   ***   
       EVAL_HESS            IRECAL              0            # of cyc.
       EXCITATION           IEXCIT              0               ***   
       EXCITE               IEXCIT         NONE         [  0]   ***   
       FCGRADNEW            IFCGNW         OFF          [  0]   ***   
       FC_FIELD             IFINFC              0             x 10-6  
       FD_CALTYPE           IFDCAL         GRADONLY     [  0]   ***   
       FD_PROJECT           IFDPRJ         OFF          [  1]   ***   
       FD_STEPSIZE          IDISFD              0            10-4 bohr
       FD_USEGROUP          IFDGRP         FULL         [  0]   ***   
       FILE_RECSIZ          IFLREC              4096           words  
       FINITE_PERT          IFIPER              0             x 10-6  
       FIXGEOM              IFIXGM         OFF          [  0]   ***   
       FOCK                 IFOCK          AO           [  1]   ***   
       FREQ_ALGORI          IVIALG         STANDARD     [  0]   ***   
       FROZEN_CORE          IFROCO         OFF          [  0]   ***   
       FROZEN_VIRT          IFROVI         OFF          [  0]   ***   
       GAMMA_ABCD           IGABCD         STORE        [  0]   ***   
       GAMMA_ABCI           IGABCI         STORE        [  0]   ***   
       GENBAS_1             IGNBS1              0               ***   
       GENBAS_2             IGNBS2              0               ***   
       GENBAS_3             IGNBS3              0               ***   
       GENBAS_4             IGNBS4              0               ***   
       GEO_CONV             ICONTL              5              H/bohr 
       GEO_MAXCYC           IOPTCY             50               ***   
       GEO_MAXSTEP          IMXSTP            300            millibohr
       GEO_METHOD           INR            SINGLE_POINT [  5]   ***   
       GIAO                 IGIAO          OFF          [  1]   ***   
       GIMIC                IGIMIC         OFF          [  0]   ***   
       GRID                 IGRID          OFF          [  0]   ***   
       GRID_ALGO            IGALGO         SERIAL       [  0]   ***   
       GUESS                IGUESS            MOREAD    [  0]   ***   
       HBAR                 IHBAR              OFF      [  0]   ***   
       HESS_TYPE            IHESTP         SCF          [  0]   ***   
       HF2_FILE             IHF2Fl         USE          [  1]   ***   
       HFSTABILITY          ISTABL         OFF          [  0]   ***   
       INCORE               INCORE             OFF      [  0]   ***   
       INPUT_MRCC           IMRCC          ON           [  1]   ***   
       INTEGRALS            INTTYP             VMOL     [  1]   ***   
       JODA_PRINT           IJPRNT              0               ***   
       LINDEP_TOL           ILINDP              8               ***   
       LINEQ_CONV           IZTACN          10D-  7           cycles  
       LINEQ_EXPOR          ILMAXD              5               ***   
       LINEQ_MAXCY          ILMAXC             50               ***   
       LINEQ_TYPE           ILTYPE         DIIS         [  1]   ***   
       LOCK_ORBOCC          ILOCOC             OFF      [  0]   ***   
       MEMORY_SIZE          IMEMSZ         100000000           words  
       MEM_UNIT             IMEMU          INTEGERWORDS [  0]   ***   
       MRCC                 IMRCCC         OFF          [  0]   ***   
       MULTIPLICTY          IMULTP              1               ***   
       NEGEVAL              IDIE             ABORT      [  0]   ***   
       NEWNORM              INEWNO         OFF          [  0]   ***   
       NON-HF               INONHF             OFF      [  0]   ***   
       NTOP_TAMP            ITOPT2             15               ***   
       NUC_MODEL            INUCMO         POINT        [  0]   ***   
       OCCUPATION           IOCCU   ESTIMATED BY SCF 
       OPEN-SHELL           IOPEN          SPIN-ORBITAL [  0]   ***   
       ORBITALS             IORBTP           STANDARD   [  0]   ***   
       PARALLEL             IPARAL         ON           [  1]   ***   
       PARA_INT             IPINTS         ON           [  1]   ***   
       PARA_PRINT           IPPRIN              0               ***   
       PERT_ORB             IPTORB         STANDARD     [  0]   ***   
       POINTS               IGRDFD              0               ***   
       PRINT                IPRNT               0               ***   
       PROPS                IPROPS             OFF      [  0]   ***   
       PROP_INTEGR          IINTYP         INTERNAL     [  0]   ***   
       PSI                  IPSI           OFF          [  0]   ***   
       QUARTIC              IQUART         OFF          [  0]   ***   
       RAMAN_INT            IRAMIN         OFF          [  0]   ***   
       RAMAN_ORB            IRAMRE         UNRELAXED    [  0]   ***   
       RDO                  IRDOFM             OFF      [  0]   ***   
       REFERENCE            IREFNC             RHF      [  0]   ***   
       RELATIVIST           IRELAT         OFF          [  0]   ***   
       RELAX_DENS           IRDENS             OFF      [  0]   ***   
       RESET_FLAGS          IRESET             OFF      [  0]   ***   
       RESTART_CC           ICCRES         OFF          [  0]   ***   
       ROT_EVEC             ROTVEC              0               ***   
       SAVE_INTS            ISVINT             OFF      [  0]   ***   
       SCALE_ON             ISTCRT              0               ***   
       SCF_CONV             ISCFCV          10D-  9             ***   
       SCF_DAMPING          IDAMP               0             x 10-3  
       SCF_EXPORDE          IRPPOR              6               ***   
       SCF_EXPSTAR          IRPPLS              8               ***   
       SCF_EXTRAPO          IRPP                ON      [  1]   ***   
       SCF_MAXCYC           ISCFCY            150              cycles 
       SCF_NOSTOP           ISCFST         OFF          [  0]   ***   
       SCF_PRINT            ISCFPR              0               ***   
       SD_FIELD             IFINSD              0             x 10-6  
       SEQUENCE             ISEQUE         OFF          [  0]   ***   
       SOPERT               IPERSO         OFF          [  0]   ***   
       SPHERICAL            IDFGHI             ON       [  1]   ***   
       SPINORBIT            ISOCAL         OFF          [  0]   ***   
       SPINROTATIO          ISRCON         OFF          [  0]   ***   
       SPIN_FLIP            ISPFLP         OFF          [  0]   ***   
       SPIN_ORBIT           ISPORB         OFF          [  0]   ***   
       SPIN_SCAL            ISCSMP         OFF          [  0]   ***   
       SUBGROUP             ISUBGP         DEFAULT      [  0]   ***   
       SUBGRPAXIS           ISBXYZ         X            [  0]   ***   
       SYMMETRY             ISYM             ON         [  0]   ***   
       SYM_CHECK            ISYMCK         OVERRIDE     [  1]   ***   
       T3_EXTRAPOL          IT3EXT         OFF          [  0]   ***   
       TAMP_SUM             IEVERY              0               ***   
       TESTSUITE            ITESTS         OFF          [  0]   ***   
       THERMOCH             ITHERM         OFF          [  0]   ***   
       TOL_CHOLESK          ITOLCH          10D-  4             ***   
       TRANGRAD             IRESRM         OFF          [  0]   ***   
       TRANS_INV            ITRAIN         USE          [  0]   ***   
       TREAT_PERT           ITREAT         SIMULTANEOUS [  0]   ***   
       UIJ_THRESHO          IUIJTH              1               ***   
       UNITS                IUNITS         ANGSTROM     [  0]   ***   
       UNOS                 IUNOS          OFF          [  0]   ***   
       UPDATE_HESS          IHUPDT         ON           [  1]   ***   
       VIBPHASE             ISETPH         STANDARD     [  0]   ***   
       VIBRATION            IVIB              NO        [  0]   ***   
       VIB_ALGORIT          IGEALG         STANDARD     [  0]   ***   
       VNATORB              IVNORB         OFF          [  0]   ***   
       VTRAN                IVTRAN         FULL/PARTIAL [  0]   ***   
       XFIELD               IXEFLD              0             x 10-6  
       XFORM_TOL            IXFTOL          10D- 11             ***   
       YFIELD               IYEFLD              0             x 10-6  
       ZFIELD               IZEFLD              0             x 10-6  
    -------------------------------------------------------------------
  @GETXYZ-I,     4 atoms read from ZMAT.
  1  N          7    14.00307
  2  N          7    14.00307
  3  N          7    14.00307
  4  N          7    14.00307
  1  N          7    14.00307
  2  N          7    14.00307
  3  N          7    14.00307
  4  N          7    14.00307
 factor:   60.199719999999999     
   Rotational constants (in cm-1): 
          0.5532377061             0.5564759291             0.5597913262
   Rotational constants (in MHz): 
      16585.6515012674         16682.7309988681         16782.1241148580
********************************************************************************
   The full molecular point group is C1  .
   The largest Abelian subgroup of the full molecular point group is C1  .
   The computational point group is C1  .
********************************************************************************
 ----------------------------------------------------------------
 Z-matrix   Atomic            Coordinates (in bohr)
  Symbol    Number           X              Y              Z
 ----------------------------------------------------------------
     N         7         1.21417130    -0.00000000     1.19291190
     N         7        -1.39027030     0.80233673     0.58212323
     N         7         0.58082277     0.80233673    -1.37739783
     N         7        -0.40472377    -1.60467345    -0.39763730
 ----------------------------------------------------------------
   Interatomic distance matrix (Angstroms) 

                 N             N             N             N    
                [ 1]        [ 2]        [ 3]        [ 4]
  N    [ 1]     0.00000
  N    [ 2]     1.47790     0.00000
  N    [ 3]     1.46376     1.47078     0.00000
  N    [ 4]     1.47085     1.47078     1.47078     0.00000
   Rotational constants (in cm-1): 
          0.5597913262             0.5564759291             0.5532377061
   Rotational constants (in MHz): 
      16782.1241148580         16682.7309988681         16585.6515012675
  There are   56 basis functions.
 @GEOPT-W, Archive file not created for single-point calculation.
  @CHECKOUT-I, Total execution time (CPU/WALL):        0.63/       0.71 seconds.
--executable xjoda finished with status     0 in        0.77 seconds (walltime).
 --invoking executable--
/usr/local/cfour/bin/xvmol
 Serial version of molecule started
********************************************************************************
                    Input from MOL file
********************************************************************************
INTGRL        1    0    1    0    0    0    0    0    0                         
         *** CFOUR Program System (Release V0.1) ***                            
test HF/def2-SVP energy                                                         
    4    0            0.10E-08              0    0                              
   9999.00      3.00                                                            
          7.00000000    1    3    2    2    1                                   
N #1   1.214171296190524  -0.000000000000001   1.192911903543903                
    5    1                                                                      
   1712.8415852999999       -5.3933999999999996E-003                            
   257.64812680000000       -4.0221600000000003E-002                            
   58.458245900000001      -0.17931140000000001                                 
   16.198367900000001      -0.46376319999999999                                 
   5.0052601000000001      -0.44171420000000000                                 
    2    2                                                                      
  0.58731860000000002        1.0000000000000000        0.0000000000000000       
  0.18764590000000000        0.0000000000000000        1.0000000000000000       
    3    1                                                                      
   13.571470200000000       -4.0072400000000001E-002                            
   2.9257373000000002      -0.21807050000000000                                 
  0.79927749999999997      -0.51294470000000003                                 
    1    1                                                                      
  0.21954350000000000        1.0000000000000000                                 
    1    1                                                                      
   1.0000000000000000        1.0000000000000000                                 
          7.00000000    1    3    2    2    1                                   
N #2  -1.390270301014354   0.802336726367047   0.582123227501401                
    5    1                                                                      
   1712.8415852999999       -5.3933999999999996E-003                            
   257.64812680000000       -4.0221600000000003E-002                            
   58.458245900000001      -0.17931140000000001                                 
   16.198367900000001      -0.46376319999999999                                 
   5.0052601000000001      -0.44171420000000000                                 
    2    2                                                                      
  0.58731860000000002        1.0000000000000000        0.0000000000000000       
  0.18764590000000000        0.0000000000000000        1.0000000000000000       
    3    1                                                                      
   13.571470200000000       -4.0072400000000001E-002                            
   2.9257373000000002      -0.21807050000000000                                 
  0.79927749999999997      -0.51294470000000003                                 
    1    1                                                                      
  0.21954350000000000        1.0000000000000000                                 
    1    1                                                                      
   1.0000000000000000        1.0000000000000000                                 
          7.00000000    1    3    2    2    1                                   
N #3   0.580822770220657   0.802336726367085  -1.377397829863988                
    5    1                                                                      
   1712.8415852999999       -5.3933999999999996E-003                            
   257.64812680000000       -4.0221600000000003E-002                            
   58.458245900000001      -0.17931140000000001                                 
   16.198367900000001      -0.46376319999999999                                 
   5.0052601000000001      -0.44171420000000000                                 
    2    2                                                                      
  0.58731860000000002        1.0000000000000000        0.0000000000000000       
  0.18764590000000000        0.0000000000000000        1.0000000000000000       
    3    1                                                                      
   13.571470200000000       -4.0072400000000001E-002                            
   2.9257373000000002      -0.21807050000000000                                 
  0.79927749999999997      -0.51294470000000003                                 
    1    1                                                                      
  0.21954350000000000        1.0000000000000000                                 
    1    1                                                                      
   1.0000000000000000        1.0000000000000000                                 
          7.00000000    1    3    2    2    1                                   
N #4  -0.404723765396827  -1.604673452734131  -0.397637301181317                
    5    1                                                                      
   1712.8415852999999       -5.3933999999999996E-003                            
   257.64812680000000       -4.0221600000000003E-002                            
   58.458245900000001      -0.17931140000000001                                 
   16.198367900000001      -0.46376319999999999                                 
   5.0052601000000001      -0.44171420000000000                                 
    2    2                                                                      
  0.58731860000000002        1.0000000000000000        0.0000000000000000       
  0.18764590000000000        0.0000000000000000        1.0000000000000000       
    3    1                                                                      
   13.571470200000000       -4.0072400000000001E-002                            
   2.9257373000000002      -0.21807050000000000                                 
  0.79927749999999997      -0.51294470000000003                                 
    1    1                                                                      
  0.21954350000000000        1.0000000000000000                                 
    1    1                                                                      
   1.0000000000000000        1.0000000000000000                                 
FINISH                                                                          

********************************************************************************
 One- and two-electron integrals over symmetry-adapted AOs are calculated.

  Spherical harmonics are used.
  
  Integrals less than  0.10E-13 are neglected.

   Basis function not normalized: 
   Center (as ordered in MOL file):   1
   Angular Momentum type          : s
   Offset within angular momentum :  1
   <chi|chi>                      :    1.0100840115
   Basis function not normalized: 
   Center (as ordered in MOL file):   1
   Angular Momentum type          : p
   Offset within angular momentum :  1
   <chi|chi>                      :    1.4685447330
   Basis function not normalized: 
   Center (as ordered in MOL file):   2
   Angular Momentum type          : s
   Offset within angular momentum :  1
   <chi|chi>                      :    1.0100840115
   Basis function not normalized: 
   Center (as ordered in MOL file):   2
   Angular Momentum type          : p
   Offset within angular momentum :  1
   <chi|chi>                      :    1.4685447330
   Basis function not normalized: 
   Center (as ordered in MOL file):   3
   Angular Momentum type          : s
   Offset within angular momentum :  1
   <chi|chi>                      :    1.0100840115
   Basis function not normalized: 
   Center (as ordered in MOL file):   3
   Angular Momentum type          : p
   Offset within angular momentum :  1
   <chi|chi>                      :    1.4685447330
   Basis function not normalized: 
   Center (as ordered in MOL file):   4
   Angular Momentum type          : s
   Offset within angular momentum :  1
   <chi|chi>                      :    1.0100840115
   Basis function not normalized: 
   Center (as ordered in MOL file):   4
   Angular Momentum type          : p
   Offset within angular momentum :  1
   <chi|chi>                      :    1.4685447330
  Nuclear repulsion energy :  105.7779183141 a.u.
  required memory for a1 array               5002594  words 
  required memory for a2 array               2004428  words 
 @GETMEM-I,  Allocated      68 MB of main memory.
  @MOLECU-I, One electron integrals (CPU/WALL):        0.13/       0.09 seconds.
  @TWOEL-I,    1220049 integrals of symmetry type  I I I I
  @TWOEL-I, Total number of 2-e integrals    1220049.
  @MOLECU-I, Two electron integrals (CPU/WALL):       11.21/       7.43 seconds.
  @CHECKOUT-I, Total execution time (CPU/WALL):       11.40/       7.57 seconds.
--executable xvmol finished with status     0 in        7.63 seconds (walltime).
 --invoking executable--
/usr/local/cfour/bin/xvmol2ja
 @GETMEM-I,  Allocated     762 MB of main memory.
  @CHECKOUT-I, Total execution time (CPU/WALL):        0.01/       0.01 seconds.
--executable xvmol2ja finished with status     0 in        0.02 seconds (walltime).
 --invoking executable--
/usr/local/cfour/bin/xvscf
  There are   56 functions in the AO basis.

  There are 1 irreducible representations.

       Irrep        # of functions
         1                 56


  Parameters for SCF calculation: 
        SCF reference function:  RHF  
  Maximum number of iterations:  150
     Full symmetry point group: C1  
     Computational point group: C1  
        Initial density matrix: MOREAD                 
     SCF convergence tolerance: 10**(- 9)
  DIIS convergence acceleration:  ON
          Latest start for DIIS:   8
                     DIIS order:   6

  Memory information:     186839 words required.
  Fock matrices are constructed from AO integral file.
 @GETMEM-I,  Allocated       1 MB of main memory.
  Initialization and symmetry analysis required      0.004 seconds.

  @INITGES-I, Occupancies from core Hamiltonian:

          Alpha population by irrep:  14
           Beta population by irrep:  14


 total no. of electrons in initial guess :   0.0000000000000000     
  --------------------------------------------------------------------
  Iteration         Total Energy            Largest Density Difference
  --------------------------------------------------------------------
       0           105.777918314137395              0.0000000000D+00
       1          -198.890144787014691              0.2164811509D+01
       2          -207.940463900534468              0.4039199508D+01
       3          -210.512083961615275              0.4281789173D+01
       4          -205.783260295192889              0.3160361427D+01
       5          -204.230855365959911              0.3257907183D+01
       6          -191.875242488497548              0.5658369662D+01
       7          -192.202253827373028              0.5655966689D+01
       8          -187.123768071822980              0.4673190248D+01
       9          -217.167703474829210              0.4088300322D+01
      10          -217.281516958407082              0.5867724700D+00
      11          -217.309690342207233              0.1042164865D+00
      12          -217.313301577899239              0.3053547656D-01
      13          -217.313836252878758              0.1428548854D-01
      14          -217.313966323810774              0.7570398752D-02
      15          -217.314004079446050              0.3725077357D-02
      16          -217.314006783200483              0.1233179878D-02
      17          -217.314007736643333              0.6087683809D-03
      18          -217.314007835074364              0.1553747475D-03
      19          -217.314007854885602              0.4448995298D-04
      20          -217.314007864961042              0.5011056532D-04
      21          -217.314007866903211              0.2313802479D-04
      22          -217.314007867140020              0.8347019758D-05
      23          -217.314007867179185              0.3373324446D-05
      24          -217.314007867185666              0.1046055235D-05
      25          -217.314007867188110              0.4848625018D-06
      26          -217.314007867187257              0.2824406966D-06
      27          -217.314007867186405              0.6343700820D-07
      28          -217.314007867187655              0.4100729439D-07
      29          -217.314007867187428              0.3037231733D-07
      30          -217.314007867186916              0.1893179963D-07
      31          -217.314007867187428              0.5717218532D-08
      32          -217.314007867187598              0.2462359094D-08

  SCF has converged.

 Density matrix saved to file den.dat
 total electron number:   28.000000000000135     
     E(SCF)=      -217.314007867187485              0.8845183475D-09

  Eigenvector printing suppressed.

 @PUTMOS-I, Writing converged MOs to NEWMOS. 
 @PUTMOS-I, Symmetry   1 Full Blocks 14 Partial Blocksize   0



  ORBITAL EIGENVALUES (ALPHA)  (1H = 27.2113838 eV)

       MO #        E(hartree)               E(eV)           FULLSYM    COMPSYM
       ----   --------------------   --------------------   -------   ---------
    1     1         -15.7527332230        -428.6536699380       A         A (1)
    2     2         -15.7520708698        -428.6356463921       A         A (1)
    3     3         -15.7520465005        -428.6349832678       A         A (1)
    4     4         -15.7520276411        -428.6344700792       A         A (1)
    5     5          -1.6678046333         -45.3832720138       A         A (1)
    6     6          -1.0459086347         -28.4606212996       A         A (1)
    7     7          -1.0424696858         -28.3670427406       A         A (1)
    8     8          -1.0390811814         -28.2748368459       A         A (1)
    9     9          -0.6940950847         -18.8872877569       A         A (1)
   10    10          -0.5780908898         -15.7306530860       A         A (1)
   11    11          -0.5769756960         -15.7003071195       A         A (1)
   12    12          -0.5757965200         -15.6682201085       A         A (1)
   13    13          -0.5497422639         -14.9592477446       A         A (1)
   14    14          -0.5444310171         -14.8147213689       A         A (1)
  +++++++++++++++++++++++++++++++++++++++++++++++++++++++++++++++++++++++++++++
   15    15           0.1840023182           5.0069577049       A         A (1)
   16    16           0.1860395240           5.0623928923       A         A (1)
   17    17           0.1878739868           5.1123111635       A         A (1)
   18    18           0.2825666628           7.6890299159       A         A (1)
   19    19           0.2859248293           7.7804102739       A         A (1)
   20    20           0.2895132268           7.8780555364       A         A (1)
   21    21           0.7409444352          20.1621234153       A         A (1)
   22    22           0.8705288275          23.6882940518       A         A (1)
   23    23           0.8716572329          23.7189995225       A         A (1)
   24    24           0.8727936102          23.7499219221       A         A (1)
   25    25           0.9243763710          25.1535602252       A         A (1)
   26    26           0.9247698522          25.1642673927       A         A (1)
   27    27           0.9251484710          25.1745701353       A         A (1)
   28    28           0.9285772982          25.2678732678       A         A (1)
   29    29           0.9306643868          25.3246658351       A         A (1)
   30    30           1.0712368359          29.1498367024       A         A (1)
   31    31           1.0715169840          29.1574599218       A         A (1)
   32    32           1.0718131621          29.1655193364       A         A (1)
   33    33           1.1060296190          30.0965964790       A         A (1)
   34    34           1.2340923534          33.5813606966       A         A (1)
   35    35           1.2370976773          33.6631397188       A         A (1)
   36    36           1.2400767678          33.7442048956       A         A (1)
   37    37           1.8883077754          51.3834676461       A         A (1)
   38    38           1.8907001563          51.4485676406       A         A (1)
   39    39           1.8929647728          51.5101909886       A         A (1)
   40    40           2.1255576948          57.8393662632       A         A (1)
   41    41           2.1294072419          57.9441177664       A         A (1)
   42    42           2.3837623294          64.8654716807       A         A (1)
   43    43           2.5494044391          69.3728227046       A         A (1)
   44    44           2.5526975297          69.4624322556       A         A (1)
   45    45           2.5559237091          69.5502210623       A         A (1)
   46    46           2.6513701888          72.1474518563       A         A (1)
   47    47           2.6574716519          72.3134811109       A         A (1)
   48    48           2.6629971413          72.4638373237       A         A (1)
   49    49           2.9005167976          78.9270758539       A         A (1)
   50    50           2.9102627066          79.1922755244       A         A (1)
   51    51           3.3404053733          90.8970527259       A         A (1)
   52    52           3.3434161403          90.9789798625       A         A (1)
   53    53           3.3463374445          91.0584725908       A         A (1)
   54    54           3.5455026960          96.4780346942       A         A (1)
   55    55           3.5517081358          96.6468932979       A         A (1)
   56    56           3.5577087110          96.8101772538       A         A (1)


  VSCF finished.

  @CHECKOUT-I, Total execution time (CPU/WALL):        2.70/       1.88 seconds.
--executable xvscf finished with status     0 in        1.89 seconds (walltime).
  The final electronic energy is      -217.314007867187485 a.u. 
  This computation required                           10.34 seconds (walltime).
