[Molden Format]
[Atoms] (Angs)
  C      1    6      0.00000000      0.00000000      0.00000000
  H      2    1      0.62911800      0.62911800      0.62911800
  H      3    1     -0.62911800     -0.62911800      0.62911800
  H      4    1      0.62911800     -0.62911800     -0.62911800
  H      5    1     -0.62911800      0.62911800     -0.62911800
[GTO]
1    0
F    3    1.000000
   6.00434383E+01    1.14074618E-01 
   2.21675055E+01    1.06681883E-01 
   4.80239597E+00    1.52168529E+01 
F    1    1.000000
   1.48339077E+00    1.00000000E+00 
F    1    1.000000
   4.61789527E-01    1.00000000E+00 
F    1    1.000000
   3.02492281E-01    1.00000000E+00 
F    1    1.000000
   9.02841222E-02    1.00000000E+00 

2    0
F    3    1.000000
   1.01787047E+01    5.98843704E-04 
   2.39526407E+00   -9.80942434E-02 
   1.04864969E+00    9.48471504E-01 
F    1    1.000000
   7.20189570E-01    1.00000000E+00 
F    1    1.000000
   3.32815150E-01    1.00000000E+00 
F    1    1.000000
   1.21664733E-01    1.00000000E+00 

3    0
F    3    1.000000
   1.01787047E+01    5.98843704E-04 
   2.39526407E+00   -9.80942434E-02 
   1.04864969E+00    9.48471504E-01 
F    1    1.000000
   7.20189570E-01    1.00000000E+00 
F    1    1.000000
   3.32815150E-01    1.00000000E+00 
F    1    1.000000
   1.21664733E-01    1.00000000E+00 

4    0
F    3    1.000000
   1.01787047E+01    5.98843704E-04 
   2.39526407E+00   -9.80942434E-02 
   1.04864969E+00    9.48471504E-01 
F    1    1.000000
   7.20189570E-01    1.00000000E+00 
F    1    1.000000
   3.32815150E-01    1.00000000E+00 
F    1    1.000000
   1.21664733E-01    1.00000000E+00 

5    0
F    3    1.000000
   1.01787047E+01    5.98843704E-04 
   2.39526407E+00   -9.80942434E-02 
   1.04864969E+00    9.48471504E-01 
F    1    1.000000
   7.20189570E-01    1.00000000E+00 
F    1    1.000000
   3.32815150E-01    1.00000000E+00 
F    1    1.000000
   1.21664733E-01    1.00000000E+00 

[MO]
Sym=X
Ene= -3.115377
Spin=Alpha
Occup=1
     1   -2.717186827102e-15
     2   -4.384120562244e-15
     3    2.375622485187e-16
     4   -5.764270117269e-15
     5   -5.191031841804e-04
     6   -1.877079221224e-15
     7   -6.762168949792e-16
     8   -9.947554932555e-17
     9    2.598832607448e-14
    10    2.578300528806e-15
    11    1.245036788510e-15
    12    8.214912298050e-02
    13    1.057010382000e-14
    14    8.048154699104e-15
    15   -7.587765864844e-14
    16   -4.692806473278e-14
    17    2.874241643303e-14
    18    1.267649180070e-14
    19   -7.861253631514e-02
    20   -1.158621809605e-14
    21   -1.065639276040e-14
    22    1.028496678015e-13
    23    3.719735023472e-14
    24   -3.462768266571e-14
    25   -4.122928127376e-14
    26   -4.731402818148e-01
    27    2.449256075732e-14
    28    6.136313245725e-16
    29   -6.267729391052e-14
    30   -6.650062445157e-14
    31    1.195311211122e-14
    32    1.774318539316e-13
    33    1.276672267500e+00
    34    4.520689378396e-14
    35   -5.309034462053e-14
    36   -1.932510261086e-01
    37    1.183416015589e-01
    38    1.183416015587e-01
    39    1.954580160918e-13
    40    3.119563962642e-01
    41   -1.527783506666e-01
    42    1.527783506665e-01
    43    2.983410296081e-01
    44   -1.826958229705e-01
    45   -1.826958229701e-01
    46   -5.571229241830e-13
    47   -4.760545189873e-01
    48    2.358592932594e-01
    49   -2.358592932594e-01
    50    1.772232683745e-02
    51   -1.085266444976e-02
    52   -1.085266445030e-02
    53    6.144000239128e-13
    54    8.855163246695e-02
    55    1.401072956290e-02
    56   -1.401072956270e-02
    57    4.976962071947e-02
    58   -3.047754386693e-02
    59   -3.047754386518e-02
    60   -1.274369498816e-12
    61   -6.383085578240e-01
    62    3.934633993239e-02
    63   -3.934633993271e-02
    64   -1.932510261086e-01
    65   -1.183416015588e-01
    66   -1.183416015587e-01
    67    8.556420546049e-14
    68    3.119563962641e-01
    69    1.527783506665e-01
    70   -1.527783506665e-01
    71    2.983410296081e-01
    72    1.826958229704e-01
    73    1.826958229701e-01
    74   -3.843913035095e-13
    75   -4.760545189872e-01
    76   -2.358592932592e-01
    77    2.358592932595e-01
    78    1.772232683745e-02
    79    1.085266444981e-02
    80    1.085266445027e-02
    81    5.208260038525e-13
    82    8.855163246694e-02
    83   -1.401072956292e-02
    84    1.401072956261e-02
    85    4.976962071946e-02
    86    3.047754386696e-02
    87    3.047754386518e-02
    88   -1.215196346327e-12
    89   -6.383085578240e-01
    90   -3.934633993242e-02
    91    3.934633993285e-02
    92    1.932510261085e-01
    93    1.183416015589e-01
    94   -1.183416015588e-01
    95   -6.956902501992e-14
    96    3.119563962641e-01
    97   -1.527783506665e-01
    98   -1.527783506665e-01
    99   -2.983410296080e-01
   100   -1.826958229705e-01
   101    1.826958229702e-01
   102    3.602891639545e-13
   103   -4.760545189871e-01
   104    2.358592932592e-01
   105    2.358592932594e-01
   106   -1.772232683745e-02
   107   -1.085266444976e-02
   108    1.085266445028e-02
   109   -5.110702442843e-13
   110    8.855163246690e-02
   111    1.401072956296e-02
   112    1.401072956265e-02
   113   -4.976962071943e-02
   114   -3.047754386696e-02
   115    3.047754386517e-02
   116    1.077417668971e-12
   117   -6.383085578240e-01
   118    3.934633993238e-02
   119    3.934633993279e-02
   120    1.932510261086e-01
   121   -1.183416015589e-01
   122    1.183416015588e-01
   123    1.878792260657e-14
   124    3.119563962641e-01
   125    1.527783506666e-01
   126    1.527783506666e-01
   127   -2.983410296080e-01
   128    1.826958229705e-01
   129   -1.826958229702e-01
   130    2.154190454490e-13
   131   -4.760545189872e-01
   132   -2.358592932594e-01
   133   -2.358592932595e-01
   134   -1.772232683748e-02
   135    1.085266444976e-02
   136   -1.085266445029e-02
   137   -3.826084414571e-13
   138    8.855163246693e-02
   139   -1.401072956283e-02
   140   -1.401072956261e-02
   141   -4.976962071938e-02
   142    3.047754386702e-02
   143   -3.047754386517e-02
   144    1.006379007906e-12
   145   -6.383085578240e-01
   146   -3.934633993249e-02
   147   -3.934633993279e-02
Sym=X
Ene= -0.512794
Spin=Alpha
Occup=1
     1    1.748131770171e-03
     2   -1.338166168472e-15
     3   -1.216422268546e-15
     4   -7.095117035036e-14
     5   -9.802563149984e-15
     6    8.644924138796e-17
     7   -4.427281073132e-15
     8   -3.110765614520e-03
     9    1.229834230585e-14
    10   -2.495516822498e-15
    11    7.725489990804e-13
    12    3.071318504516e-14
    13   -1.801137079440e-15
    14    1.269442306468e-14
    15    1.485121679066e-01
    16    1.533598382563e-14
    17   -4.729968180366e-14
    18   -4.719945222869e-12
    19   -1.060763812286e-13
    20    4.393700166064e-14
    21    2.044134447213e-14
    22   -7.652089722125e-03
    23   -8.965115748338e-14
    24   -8.262434489474e-14
    25    7.848401882026e-12
    26   -2.208867843880e-13
    27    2.903876795616e-14
    28   -2.325919752278e-13
    29   -1.448679843682e-01
    30    2.052636591243e-13
    31    1.422664442578e-13
    32   -3.900723157560e-11
    33   -6.223861201323e-13
    34   -5.648329602702e-14
    35    7.225633665616e-13
    36    7.414852043229e-03
    37    2.508611851328e-03
    38    2.508611854271e-03
    39    4.968313493904e-13
    40   -1.249650963765e-01
    41    3.784744377021e-02
    42   -3.784744376837e-02
    43   -3.943371941592e-02
    44    1.871498399534e-02
    45    1.871498399017e-02
    46   -1.109388245704e-12
    47    2.853383763254e-01
    48   -8.293638922920e-02
    49    8.293638922571e-02
    50   -9.311079486113e-03
    51   -1.637128960935e-01
    52   -1.637128960877e-01
    53    2.268632560997e-12
    54   -3.056664181446e-01
    55   -5.147779098752e-02
    56    5.147779099446e-02
    57    3.443268033381e-02
    58   -1.705619006394e-01
    59   -1.705619006605e-01
    60    1.268209670242e-11
    61    1.163447970049e-01
    62    4.328784146915e-02
    63   -4.328784147395e-02
    64    7.414852043216e-03
    65   -2.508611851506e-03
    66   -2.508611854231e-03
    67    3.259057046044e-13
    68   -1.249650963766e-01
    69   -3.784744377042e-02
    70    3.784744376896e-02
    71   -3.943371941588e-02
    72   -1.871498399512e-02
    73   -1.871498399023e-02
    74   -8.278781094567e-13
    75    2.853383763255e-01
    76    8.293638922953e-02
    77   -8.293638922666e-02
    78   -9.311079486082e-03
    79    1.637128960933e-01
    80    1.637128960875e-01
    81    2.123714886674e-12
    82   -3.056664181446e-01
    83    5.147779098722e-02
    84   -5.147779099383e-02
    85    3.443268033385e-02
    86    1.705619006392e-01
    87    1.705619006603e-01
    88    1.272724932172e-11
    89    1.163447970048e-01
    90   -4.328784146896e-02
    91    4.328784147298e-02
    92    7.414852043255e-03
    93   -2.508611851538e-03
    94    2.508611854310e-03
    95    7.005896276795e-13
    96    1.249650963766e-01
    97   -3.784744377040e-02
    98   -3.784744376853e-02
    99   -3.943371941594e-02
   100   -1.871498399510e-02
   101    1.871498399014e-02
   102   -1.369120850627e-12
   103   -2.853383763255e-01
   104    8.293638922948e-02
   105    8.293638922598e-02
   106   -9.311079486186e-03
   107    1.637128960932e-01
   108   -1.637128960875e-01
   109    2.328977925770e-12
   110    3.056664181445e-01
   111    5.147779098743e-02
   112    5.147779099423e-02
   113    3.443268033386e-02
   114    1.705619006393e-01
   115   -1.705619006605e-01
   116    1.268814466335e-11
   117   -1.163447970043e-01
   118   -4.328784146913e-02
   119   -4.328784147389e-02
   120    7.414852043328e-03
   121    2.508611851480e-03
   122   -2.508611854299e-03
   123    6.636175712681e-13
   124    1.249650963767e-01
   125    3.784744377047e-02
   126    3.784744376869e-02
   127   -3.943371941606e-02
   128    1.871498399520e-02
   129   -1.871498399012e-02
   130   -1.255116372162e-12
   131   -2.853383763256e-01
   132   -8.293638922958e-02
   133   -8.293638922623e-02
   134   -9.311079486094e-03
   135   -1.637128960933e-01
   136    1.637128960873e-01
   137    2.287716240404e-12
   138    3.056664181446e-01
   139   -5.147779098717e-02
   140   -5.147779099418e-02
   141    3.443268033378e-02
   142   -1.705619006395e-01
   143    1.705619006604e-01
   144    1.273463805788e-11
   145   -1.163447970043e-01
   146    4.328784146901e-02
   147    4.328784147326e-02
Sym=X
Ene= -0.512794
Spin=Alpha
Occup=1
     1    1.390247378897e-15
     2   -1.070507710961e-03
     3   -1.625293993556e-14
     4    4.228788255972e-16
     5   -2.087684953270e-14
     6    1.382019511304e-03
     7   -1.270268919106e-14
     8   -4.996648520523e-15
     9    1.904947123120e-03
    10    2.982961217036e-14
    11   -2.562093929124e-15
    12    5.931925101457e-14
    13   -2.459276154808e-03
    14    1.443863195400e-14
    15    6.915149198703e-14
    16   -9.094475805436e-02
    17   -1.043773186913e-13
    18    3.086334086884e-14
    19   -2.646814996136e-13
    20    1.174091777515e-01
    21   -6.726419102036e-14
    22    8.005182758926e-14
    23    4.685928946625e-03
    24   -1.905508888011e-14
    25   -6.983712466522e-14
    26   -1.108881181724e-13
    27   -6.049508193504e-03
    28   -1.086929532846e-13
    29   -1.373846444052e-13
    30    8.871315989081e-02
    31    1.472917959571e-13
    32    2.264014353384e-13
    33   -8.403016282077e-13
    34   -1.145281972663e-01
    35    3.959104599326e-13
    36    2.838482674360e-02
    37   -4.540650998989e-03
    38   -3.727278282421e-02
    39    2.515996313693e-02
    40   -1.249650963728e-01
    41    5.861955238624e-03
    42   -7.032907951359e-03
    43   -7.702751307250e-02
    44    2.414812279141e-02
    45    7.562406758499e-02
    46   -3.599246474494e-02
    47    2.853383763156e-01
    48   -3.117509248160e-02
    49    3.885480262165e-02
    50    5.955649786000e-02
    51    5.701848450772e-03
    52    9.077138081107e-02
    53   -1.609499887296e-01
    54   -3.056664181215e-01
    55   -7.361054678444e-03
    56   -1.456448822620e-01
    57    1.386694499885e-01
    58   -2.108562416844e-02
    59    7.272029113441e-04
    60   -1.083327410893e-01
    61    1.163447970079e-01
    62    2.722142385266e-02
    63   -1.759678105960e-01
    64   -2.838482674386e-02
    65   -4.540650998889e-03
    66   -3.727278282416e-02
    67   -2.515996313674e-02
    68    1.249650963728e-01
    69    5.861955238887e-03
    70   -7.032907951298e-03
    71    7.702751307289e-02
    72    2.414812279122e-02
    73    7.562406758492e-02
    74    3.599246474467e-02
    75   -2.853383763156e-01
    76   -3.117509248195e-02
    77    3.885480262159e-02
    78   -5.955649785996e-02
    79    5.701848451013e-03
    80    9.077138081103e-02
    81    1.609499887295e-01
    82    3.056664181212e-01
    83   -7.361054678326e-03
    84   -1.456448822619e-01
    85   -1.386694499885e-01
    86   -2.108562416843e-02
    87    7.272029112647e-04
    88    1.083327410891e-01
    89   -1.163447970071e-01
    90    2.722142385272e-02
    91   -1.759678105960e-01
    92   -2.838482674390e-02
    93   -4.540650998871e-03
    94    3.727278282446e-02
    95   -2.515996313684e-02
    96   -1.249650963728e-01
    97    5.861955238458e-03
    98    7.032907951200e-03
    99    7.702751307288e-02
   100    2.414812279122e-02
   101   -7.562406758535e-02
   102    3.599246474478e-02
   103    2.853383763155e-01
   104   -3.117509248129e-02
   105   -3.885480262141e-02
   106   -5.955649786006e-02
   107    5.701848450804e-03
   108   -9.077138081086e-02
   109    1.609499887297e-01
   110   -3.056664181213e-01
   111   -7.361054678600e-03
   112    1.456448822618e-01
   113   -1.386694499883e-01
   114   -2.108562416854e-02
   115   -7.272029115361e-04
   116    1.083327410889e-01
   117    1.163447970079e-01
   118    2.722142385263e-02
   119    1.759678105955e-01
   120    2.838482674411e-02
   121   -4.540650998824e-03
   122    3.727278282440e-02
   123    2.515996313677e-02
   124    1.249650963729e-01
   125    5.861955238749e-03
   126    7.032907951347e-03
   127   -7.702751307323e-02
   128    2.414812279118e-02
   129   -7.562406758530e-02
   130   -3.599246474470e-02
   131   -2.853383763156e-01
   132   -3.117509248171e-02
   133   -3.885480262164e-02
   134    5.955649786025e-02
   135    5.701848450848e-03
   136   -9.077138081085e-02
   137   -1.609499887296e-01
   138    3.056664181212e-01
   139   -7.361054678561e-03
   140    1.456448822618e-01
   141    1.386694499885e-01
   142   -2.108562416847e-02
   143   -7.272029113503e-04
   144   -1.083327410893e-01
   145   -1.163447970071e-01
   146    2.722142385260e-02
   147    1.759678105955e-01
Sym=X
Ene= -0.512794
Spin=Alpha
Occup=1
     1    9.637618059737e-15
     2    9.141392875342e-15
     3   -1.070507711033e-03
     4    7.996251669405e-16
     5   -2.456155729170e-15
     6    7.355438997236e-16
     7   -1.382019511529e-03
     8   -2.245287937407e-14
     9   -1.738505801263e-14
    10    1.904947123499e-03
    11   -3.766830626324e-14
    12    2.642878207906e-14
    13   -5.196162501300e-15
    14    2.459276156498e-03
    15    2.101746240154e-14
    16    5.033866306528e-14
    17   -9.094475806188e-02
    18    1.692001400012e-13
    19   -2.038251114465e-13
    20   -3.309261253991e-14
    21   -1.174091777687e-01
    22    2.254540916852e-13
    23   -1.760443600945e-13
    24    4.685928964198e-03
    25   -1.738295532139e-13
    26   -3.240771263823e-14
    27    2.500847974278e-13
    28    6.049508228775e-03
    29   -3.814225275683e-13
    30    3.520704704671e-13
    31    8.871315982208e-02
    32    1.356438157098e-13
    33   -5.930963786635e-13
    34   -4.697319363421e-13
    35    1.145281971142e-01
    36    2.838482674355e-02
    37   -3.727278282721e-02
    38   -4.540650998214e-03
    39   -2.515996313930e-02
    40   -1.249650963717e-01
    41    7.032907952255e-03
    42   -5.861955236748e-03
    43   -7.702751307239e-02
    44    7.562406759104e-02
    45    2.414812278951e-02
    46    3.599246474990e-02
    47    2.853383763128e-01
    48   -3.885480262315e-02
    49    3.117509247726e-02
    50    5.955649785938e-02
    51    9.077138080185e-02
    52    5.701848453366e-03
    53    1.609499887243e-01
    54   -3.056664181154e-01
    55    1.456448822652e-01
    56    7.361054685705e-03
    57    1.386694499921e-01
    58    7.272029168152e-04
    59   -2.108562415197e-02
    60    1.083327411003e-01
    61    1.163447970084e-01
    62    1.759678105840e-01
    63   -2.722142381106e-02
    64   -2.838482674379e-02
    65   -3.727278282703e-02
    66   -4.540650997939e-03
    67    2.515996313943e-02
    68    1.249650963718e-01
    69    7.032907952576e-03
    70   -5.861955237097e-03
    71    7.702751307273e-02
    72    7.562406759076e-02
    73    2.414812278907e-02
    74   -3.599246475010e-02
    75   -2.853383763129e-01
    76   -3.885480262359e-02
    77    3.117509247776e-02
    78   -5.955649785934e-02
    79    9.077138080188e-02
    80    5.701848453681e-03
    81   -1.609499887240e-01
    82    3.056664181153e-01
    83    1.456448822652e-01
    84    7.361054685418e-03
    85   -1.386694499918e-01
    86    7.272029169725e-04
    87   -2.108562415219e-02
    88   -1.083327411002e-01
    89   -1.163447970079e-01
    90    1.759678105843e-01
    91   -2.722142381083e-02
    92    2.838482674378e-02
    93    3.727278282749e-02
    94   -4.540650998427e-03
    95   -2.515996313930e-02
    96    1.249650963719e-01
    97   -7.032907952676e-03
    98   -5.861955236555e-03
    99   -7.702751307277e-02
   100   -7.562406759150e-02
   101    2.414812278982e-02
   102    3.599246474987e-02
   103   -2.853383763130e-01
   104    3.885480262375e-02
   105    3.117509247694e-02
   106    5.955649785961e-02
   107   -9.077138080153e-02
   108    5.701848453318e-03
   109    1.609499887241e-01
   110    3.056664181154e-01
   111   -1.456448822652e-01
   112    7.361054685862e-03
   113    1.386694499922e-01
   114   -7.272029174138e-04
   115   -2.108562415221e-02
   116    1.083327411000e-01
   117   -1.163447970079e-01
   118   -1.759678105837e-01
   119   -2.722142381101e-02
   120   -2.838482674370e-02
   121    3.727278282715e-02
   122   -4.540650998301e-03
   123    2.515996313937e-02
   124   -1.249650963718e-01
   125   -7.032907952494e-03
   126   -5.861955236885e-03
   127    7.702751307261e-02
   128   -7.562406759092e-02
   129    2.414812278963e-02
   130   -3.599246474999e-02
   131    2.853383763130e-01
   132    3.885480262346e-02
   133    3.117509247745e-02
   134   -5.955649785944e-02
   135   -9.077138080192e-02
   136    5.701848453328e-03
   137   -1.609499887240e-01
   138   -3.056664181155e-01
   139   -1.456448822652e-01
   140    7.361054685431e-03
   141   -1.386694499917e-01
   142   -7.272029170616e-04
   143   -2.108562415194e-02
   144   -1.083327411003e-01
   145    1.163447970085e-01
   146   -1.759678105835e-01
   147   -2.722142381107e-02
Sym=X
Ene= -0.031974
Spin=Alpha
Occup=1
     1    7.852605284769e-16
     2   -9.539325709559e-15
     3   -3.915535159559e-15
     4   -2.119754160613e-15
     5    4.270715163471e-03
     6   -2.172741153661e-16
     7   -4.476840176782e-15
     8   -4.237587928127e-14
     9    9.675094926609e-15
    10    2.258978594460e-14
    11    1.919166594307e-15
    12   -2.546079417142e-02
    13   -1.371342275847e-14
    14    2.451828345386e-14
    15    2.619877242666e-13
    16   -1.418054042246e-13
    17   -1.892110600143e-13
    18   -1.123753867738e-14
    19    2.764934376844e-01
    20    1.189690707060e-13
    21   -1.708385494702e-13
    22    2.125351245908e-12
    23   -1.384253605838e-12
    24   -8.261876426052e-13
    25    5.716239113995e-15
    26    3.855893261169e-01
    27    1.922271369859e-12
    28   -1.216173375115e-12
    29   -3.501872403167e-12
    30    2.060381813079e-12
    31    1.307131486383e-12
    32   -3.488947412228e-13
    33    1.166636915285e+00
    34   -3.201605647263e-12
    35    2.290587424597e-12
    36    4.553222581375e-02
    37   -2.788268000948e-02
    38   -2.788268002779e-02
    39    1.234941402611e-11
    40   -1.879072005921e-02
    41    3.599638520928e-02
    42   -3.599638521287e-02
    43   -6.785866329022e-02
    44    4.155477492443e-02
    45    4.155477495913e-02
    46   -1.914183568597e-11
    47    8.487755172049e-03
    48   -5.364698390286e-02
    49    5.364698391658e-02
    50   -4.117450290881e-02
    51    2.521413075540e-02
    52    2.521413067308e-02
    53    6.341905906676e-11
    54    7.690119305775e-02
    55   -3.255130231764e-02
    56    3.255130231457e-02
    57    6.264523447298e-02
    58   -3.836221594561e-02
    59   -3.836221598213e-02
    60   -1.383713317538e-10
    61   -4.128273483509e-01
    62    4.952540670259e-02
    63   -4.952540697373e-02
    64    4.553222581378e-02
    65    2.788268000964e-02
    66    2.788268002810e-02
    67    1.254570286633e-11
    68   -1.879072005994e-02
    69   -3.599638520956e-02
    70    3.599638521311e-02
    71   -6.785866329021e-02
    72   -4.155477492475e-02
    73   -4.155477495969e-02
    74   -1.950284356754e-11
    75    8.487755173389e-03
    76    5.364698390334e-02
    77   -5.364698391698e-02
    78   -4.117450290817e-02
    79   -2.521413075609e-02
    80   -2.521413067341e-02
    81    6.351168983093e-11
    82    7.690119305748e-02
    83    3.255130231787e-02
    84   -3.255130231433e-02
    85    6.264523447594e-02
    86    3.836221594526e-02
    87    3.836221598338e-02
    88   -1.379493706766e-10
    89   -4.128273483523e-01
    90   -4.952540669927e-02
    91    4.952540697136e-02
    92   -4.553222581399e-02
    93   -2.788268000964e-02
    94    2.788268002778e-02
    95   -1.230685226037e-11
    96   -1.879072005993e-02
    97    3.599638520953e-02
    98    3.599638521329e-02
    99    6.785866329065e-02
   100    4.155477492465e-02
   101   -4.155477495906e-02
   102    1.902819644472e-11
   103    8.487755173380e-03
   104   -5.364698390323e-02
   105   -5.364698391736e-02
   106    4.117450290950e-02
   107    2.521413075469e-02
   108   -2.521413067306e-02
   109   -6.373320079155e-11
   110    7.690119305747e-02
   111   -3.255130231698e-02
   112   -3.255130231471e-02
   113   -6.264523447040e-02
   114   -3.836221594668e-02
   115    3.836221598037e-02
   116    1.401378006693e-10
   117   -4.128273483523e-01
   118    4.952540670503e-02
   119    4.952540697374e-02
   120   -4.553222581388e-02
   121    2.788268000947e-02
   122   -2.788268002800e-02
   123   -1.269981168839e-11
   124   -1.879072006004e-02
   125   -3.599638520980e-02
   126   -3.599638521317e-02
   127    6.785866329049e-02
   128   -4.155477492435e-02
   129    4.155477495942e-02
   130    1.981196283418e-11
   131    8.487755173599e-03
   132    5.364698390380e-02
   133    5.364698391704e-02
   134    4.117450290950e-02
   135   -2.521413075568e-02
   136    2.521413067240e-02
   137   -6.340060681315e-11
   138    7.690119305739e-02
   139    3.255130231799e-02
   140    3.255130231365e-02
   141   -6.264523447129e-02
   142    3.836221594297e-02
   143   -3.836221598436e-02
   144    1.369559708697e-10
   145   -4.128273483524e-01
   146   -4.952540670143e-02
   147   -4.952540697618e-02
Sym=X
Ene= 0.118027
Spin=Alpha
Occup=0
     1   -1.625651837452e-15
     2    2.395479690328e-14
     3    7.598624606160e-04
     4   -6.058484533158e-15
     5    1.483968589195e-14
     6   -9.169900759944e-15
     7    9.809782196709e-04
     8    5.182228357069e-15
     9   -6.211186553691e-14
    10   -3.673009062036e-03
    11    4.392277108340e-14
    12   -7.993209363076e-14
    13    2.845217551145e-14
    14   -4.741834318016e-03
    15    1.868493144699e-14
    16    1.669407816737e-13
    17    2.113384255676e-02
    18   -2.068695202568e-13
    19    8.681896346576e-13
    20   -1.663535710008e-13
    21    2.728367348040e-02
    22    1.061013188658e-13
    23    2.367678861130e-12
    24    2.162332157916e-01
    25    8.384667623306e-13
    26    1.593959615444e-12
    27   -2.233516431700e-12
    28    2.791558810711e-01
    29   -6.959180342994e-13
    30   -8.531725673167e-13
    31   -2.829993371260e-01
    32    8.023879232782e-13
    33    4.559406994282e-12
    34    3.134623853887e-12
    35   -3.653505730404e-01
    36    1.775094950652e-03
    37   -1.944886369303e-02
    38   -4.115478574783e-03
    39   -2.322610024044e-02
    40   -3.517696210591e-02
    41   -1.281968779741e-02
    42   -5.313060029191e-03
    43   -1.974797258839e-03
    44    3.509242276583e-02
    45    1.186212662309e-02
    46    4.285912245948e-02
    47    7.178107952167e-02
    48    2.468453089245e-02
    49    1.531393969015e-02
    50    2.617855895404e-02
    51    8.723919708887e-03
    52    5.991713925383e-02
    53    3.131280710213e-02
    54   -1.935933428376e-02
    55    3.987106800245e-02
    56    7.735269406612e-02
    57    1.988244566138e-01
    58   -2.438783831294e-01
    59    1.466333364553e-01
    60   -1.544757030552e-01
    61   -4.777082121544e-02
    62    6.258787188516e-02
    63    1.893028236285e-01
    64   -1.775094950398e-03
    65   -1.944886369287e-02
    66   -4.115478574391e-03
    67    2.322610023991e-02
    68    3.517696210577e-02
    69   -1.281968779750e-02
    70   -5.313060029032e-03
    71    1.974797258500e-03
    72    3.509242276556e-02
    73    1.186212662247e-02
    74   -4.285912245869e-02
    75   -7.178107952155e-02
    76    2.468453089262e-02
    77    1.531393968986e-02
    78   -2.617855895433e-02
    79    8.723919708671e-03
    80    5.991713925401e-02
    81   -3.131280710250e-02
    82    1.935933428408e-02
    83    3.987106800259e-02
    84    7.735269406572e-02
    85   -1.988244566130e-01
    86   -2.438783831290e-01
    87    1.466333364553e-01
    88    1.544757030552e-01
    89    4.777082121263e-02
    90    6.258787188538e-02
    91    1.893028236286e-01
    92    1.775094950214e-03
    93    1.944886369324e-02
    94   -4.115478574290e-03
    95   -2.322610024058e-02
    96    3.517696210501e-02
    97    1.281968779721e-02
    98   -5.313060029354e-03
    99   -1.974797258201e-03
   100   -3.509242276602e-02
   101    1.186212662218e-02
   102    4.285912245983e-02
   103   -7.178107952006e-02
   104   -2.468453089225e-02
   105    1.531393969045e-02
   106    2.617855895383e-02
   107   -8.723919707178e-03
   108    5.991713925339e-02
   109    3.131280710286e-02
   110    1.935933428363e-02
   111   -3.987106800450e-02
   112    7.735269406658e-02
   113    1.988244566098e-01
   114    2.438783831307e-01
   115    1.466333364599e-01
   116   -1.544757030579e-01
   117    4.777082121184e-02
   118   -6.258787188789e-02
   119    1.893028236301e-01
   120   -1.775094950483e-03
   121    1.944886369330e-02
   122   -4.115478574590e-03
   123    2.322610024045e-02
   124   -3.517696210507e-02
   125    1.281968779710e-02
   126   -5.313060029619e-03
   127    1.974797258570e-03
   128   -3.509242276601e-02
   129    1.186212662261e-02
   130   -4.285912245957e-02
   131    7.178107951997e-02
   132   -2.468453089212e-02
   133    1.531393969081e-02
   134   -2.617855895332e-02
   135   -8.723919707702e-03
   136    5.991713925360e-02
   137   -3.131280710323e-02
   138   -1.935933428292e-02
   139   -3.987106800411e-02
   140    7.735269406673e-02
   141   -1.988244566098e-01
   142    2.438783831312e-01
   143    1.466333364594e-01
   144    1.544757030583e-01
   145   -4.777082121465e-02
   146   -6.258787188823e-02
   147    1.893028236290e-01
Sym=X
Ene= 0.118027
Spin=Alpha
Occup=0
     1   -2.697874613578e-15
     2   -7.598624604661e-04
     3    9.579804990592e-15
     4   -8.189600176593e-16
     5   -1.125591776020e-14
     6    9.809782197656e-04
     7    1.700828266746e-14
     8    1.869402893240e-14
     9    3.673009061736e-03
    10   -6.827187029417e-14
    11    1.758902067778e-14
    12    1.002973489592e-13
    13   -4.741834319909e-03
    14   -3.287720945911e-14
    15   -1.297864623720e-13
    16   -2.113384254866e-02
    17    4.328556556157e-13
    18   -1.427632077256e-14
    19   -1.218525593306e-12
    20    2.728367348511e-02
    21    4.041559838533e-13
    22   -2.079265993278e-13
    23   -2.162332157799e-01
    24    1.137539281520e-12
    25    3.440988405741e-13
    26   -2.465582435208e-12
    27    2.791558810186e-01
    28    2.499671910433e-12
    29    1.178891513650e-12
    30    2.829993372034e-01
    31   -3.484058202531e-12
    32    1.111868493916e-12
    33   -6.794307297927e-12
    34   -3.653505730941e-01
    35   -2.816649040741e-12
    36   -1.775094949438e-03
    37    4.115478569199e-03
    38    1.944886368796e-02
    39   -2.322610023624e-02
    40    3.517696210516e-02
    41   -5.313060032156e-03
    42   -1.281968779479e-02
    43    1.974797256750e-03
    44   -1.186212661250e-02
    45   -3.509242275600e-02
    46    4.285912245223e-02
    47   -7.178107952043e-02
    48    1.531393969611e-02
    49    2.468453088744e-02
    50   -2.617855894967e-02
    51   -5.991713926506e-02
    52   -8.723919720551e-03
    53    3.131280710929e-02
    54    1.935933428613e-02
    55    7.735269405730e-02
    56    3.987106800741e-02
    57   -1.988244565990e-01
    58   -1.466333364194e-01
    59    2.438783831663e-01
    60   -1.544757030625e-01
    61    4.777082122086e-02
    62    1.893028236443e-01
    63    6.258787189272e-02
    64    1.775094949315e-03
    65    4.115478569172e-03
    66    1.944886368771e-02
    67    2.322610023663e-02
    68   -3.517696210498e-02
    69   -5.313060031711e-03
    70   -1.281968779504e-02
    71   -1.974797256626e-03
    72   -1.186212661240e-02
    73   -3.509242275559e-02
    74   -4.285912245288e-02
    75    7.178107952035e-02