[Molden Format]
[Title]
 Molden file created by orca_2mkl for BaseName=./methane

[Atoms] AU
C    1   6          0.0000000000         0.0000000000         0.0000000000 
H    2   1          1.1888607259         1.1888607259         1.1888607259 
H    3   1         -1.1888607259        -1.1888607259         1.1888607259 
H    4   1          1.1888607259        -1.1888607259        -1.1888607259 
H    5   1         -1.1888607259         1.1888607259        -1.1888607259 
[GTO]
  1 0
d   3 1.0 
       46.1353741081        29.7479352703
       20.2682182254        24.4151231629
        6.0945916653        65.4953081880
d   1 1.0 
        1.7693044884         7.7379264471
d   1 1.0 
        0.4862266873         0.8071197411
d   1 1.0 
        0.3339012316         0.4181206532
d   1 1.0 
        0.1924957593         0.1594803296

  2 0
d   3 1.0 
        3.1324842646         0.7906622013
        1.5153893402        -2.4355860503
        0.9002899934         3.1643249881
d   1 1.0 
        0.5061684510         0.8659373266
d   1 1.0 
        0.3586173545         0.4737779701
d   1 1.0 
        0.0948003308         0.0461729184

  3 0
d   3 1.0 
        3.1324842646         0.7906622013
        1.5153893402        -2.4355860503
        0.9002899934         3.1643249881
d   1 1.0 
        0.5061684510         0.8659373266
d   1 1.0 
        0.3586173545         0.4737779701
d   1 1.0 
        0.0948003308         0.0461729184

  4 0
d   3 1.0 
        3.1324842646         0.7906622013
        1.5153893402        -2.4355860503
        0.9002899934         3.1643249881
d   1 1.0 
        0.5061684510         0.8659373266
d   1 1.0 
        0.3586173545         0.4737779701
d   1 1.0 
        0.0948003308         0.0461729184

  5 0
d   3 1.0 
        3.1324842646         0.7906622013
        1.5153893402        -2.4355860503
        0.9002899934         3.1643249881
d   1 1.0 
        0.5061684510         0.8659373266
d   1 1.0 
        0.3586173545         0.4737779701
d   1 1.0 
        0.0948003308         0.0461729184

[5D]
[9G]
[MO]
 Sym=     1a
 Ene= -2.31548181786438E+00
 Spin= Alpha
 Occup= 2.000000
  1      -0.000036115220
  2       0.000000009409
  3       0.000000003448
  4       0.000062553271
  5       0.000000003690
  6      -0.000421634048
  7       0.000000114336
  8       0.000000067499
  9       0.000730292111
 10       0.000000038152
 11      -0.005699442619
 12       0.000003200909
 13      -0.000000259155
 14       0.009871722555
 15       0.000001263654
 16       0.005080307269
 17      -0.000005265794
 18       0.000001070762
 19      -0.008799347715
 20      -0.000002078189
 21       0.000891916882
 22       0.000002392559
 23      -0.000000657576
 24      -0.001544846220
 25       0.000000942502
 26       0.000136326573
 27      -0.396931505727
 28      -0.397469086141
 29      -0.000235915625
 30      -0.396931502595
 31      -0.000554845443
 32       0.905649095786
 33       0.906134154852
 34       0.000960659353
 35       0.905648845654
 36      -0.000260430177
 37      -0.395896965332
 38      -0.396233075411
 39       0.000450951596
 40      -0.395896585937
 41       0.000010030273
 42       0.092948608531
 43       0.092675986332
 44      -0.000017340644
 45       0.092948701813
 46       0.000136272363
 47       0.396931306086
 48       0.397469288434
 49      -0.000236510374
 50      -0.396931271746
 51      -0.000554818306
 52      -0.905648475736
 53      -0.906135382625
 54       0.000961794728
 55       0.905648925785
 56      -0.000260273008
 57       0.395896361784
 58       0.396234474037
 59       0.000451117670
 60      -0.395897137205
 61       0.000009993020
 62      -0.092948914486
 63      -0.092675817458
 64      -0.000017344766
 65       0.092948702315
 66       0.000136283529
 67       0.396931619529
 68      -0.397469162577
 69      -0.000236258474
 70       0.396931626634
 71      -0.000554777101
 72      -0.905649988449
 73       0.906135705228
 74       0.000961259306
 75      -0.905650247186
 76      -0.000260398433
 77       0.395897346105
 78      -0.396234527694
 79       0.000451154512
 80       0.395897731500
 81       0.000010000508
 82      -0.092948917670
 83       0.092675910661
 84      -0.000017354400
 85      -0.092948824336
 86       0.000136629852
 87      -0.396931181115
 88       0.397469188184
 89      -0.000236168236
 90       0.396931214362
 91      -0.000555434923
 92       0.905648338512
 93      -0.906134521427
 94       0.000961217911
 95      -0.905647883025
 96      -0.000260499154
 97      -0.395896819581
 98       0.396233758846
 99       0.000450885196
100       0.395896040767
101       0.000010015588
102       0.092948609003
103      -0.092675813960
104      -0.000017310223
105      -0.092948821608
 Sym=     1a
 Ene= -7.37100445315877E-01
 Spin= Alpha
 Occup= 2.000000
  1      -0.000000006033
  2      -0.001650428371
  3       0.000000559562
  4      -0.000000027979
  5      -0.001650571077
  6      -0.000000058448
  7      -0.018148373802
  8       0.000005967265
  9      -0.000000264535
 10      -0.018149942426
 11      -0.000000466726
 12       0.460341621222
 13      -0.000133041584
 14      -0.000001973040
 15       0.460381405117
 16       0.000000244914
 17      -1.326033840534
 18       0.000395541051
 19       0.000000405886
 20      -1.326148447207
 21      -0.000000380955
 22       0.699566800337
 23      -0.000207433337
 24      -0.000002000512
 25       0.699627261695
 26      -0.009148073292
 27      -0.067584050346
 28       0.069192985031
 29       0.015842541229
 30      -0.067595933472
 31      -0.006637562766
 32       0.036084440439
 33      -0.439568931206
 34       0.011493998026
 35       0.036125907695
 36       0.086891889364
 37      -0.148167070278
 38       0.305358683412
 39      -0.150474684940
 40      -0.148206592863
 41       0.038626053641
 42       0.068463512286
 43       0.170519176858
 44      -0.066890825338
 45       0.068454584922
 46      -0.023033871684
 47      -0.141365369395
 48       0.000027678419
 49      -0.013302875345
 50      -0.141347316694
 51      -0.037891567946
 52       0.494186004109
 53      -0.000058570658
 54      -0.021883425584
 55       0.494047069789
 56       0.275164672713
 57      -0.475223037219
 58       0.000079940697
 59       0.158919246840
 60      -0.475134574882
 61       0.113553000441
 62      -0.105152436731
 63      -0.000001508669
 64       0.065581365151
 65      -0.105095853638
 66       0.009143372633
 67      -0.067562244319
 68      -0.069129269592
 69      -0.015834577919
 70      -0.067574796373
 71       0.006632433774
 72       0.035947488118
 73       0.439408167543
 74      -0.011482742028
 75       0.035991431124
 76      -0.086839663073
 77      -0.148067293447
 78      -0.305169209431
 79       0.150382263936
 80      -0.148109908083
 81      -0.038603726589
 82       0.068514338258
 83      -0.170506490259
 84       0.066852414947
 85       0.068505092173
 86       0.023038701401
 87      -0.141341076342
 88       0.000033660894
 89       0.013295310561
 90      -0.141370809935
 91       0.037896282098
 92       0.494042178955
 93      -0.000096568610
 94       0.021871388418
 95       0.494187342250
 96      -0.275216378949
 97      -0.475120004791
 98       0.000106336903
 99      -0.158826069318
100      -0.475234076016
101      -0.113575312310
102      -0.105101820795
103       0.000013227785
104      -0.065543519740
105      -0.105146564297
 Sym=     1a
 Ene= -7.37097804859332E-01
 Spin= Alpha
 Occup= 2.000000
  1       0.000000030260
  2       0.001650545498
  3       0.000000236662
  4       0.000000029969
  5      -0.001650402842
  6       0.000000289386
  7       0.018149621583
  8       0.000002544498
  9       0.000000285444
 10      -0.018148052611
 11       0.000002110208
 12      -0.460383205289
 13      -0.000056498615
 14       0.000002119432
 15       0.460343388935
 16      -0.000000412522
 17       1.326148616772
 18       0.000167910627
 19      -0.000000497472
 20      -1.326033939267
 21       0.000002139891
 22      -0.699629915762
 23      -0.000088118154
 24       0.000002118186
 25       0.699569408182
 26      -0.023037070516
 27       0.141353375627
 28       0.000010030294
 29      -0.013299228071
 30      -0.141357716251
 31      -0.037892328046
 32      -0.494084863029
 33      -0.000013956916
 34      -0.021874488134
 35       0.494142165635
 36       0.275192586967
 37       0.475161741286
 38       0.000026345986
 39       0.158864914294
 40      -0.475192032358
 41       0.113566358756
 42       0.105110793329
 43      -0.000004907825
 44       0.065560726449
 45      -0.105138235750
 46      -0.009142883125
 47       0.067579989432
 48      -0.069147507829
 49       0.015838581632
 50      -0.067568636017
 51      -0.006630547175
 52      -0.036026375688
 53       0.439453822699
 54       0.011485193553
 55       0.035986785924
 56       0.086830557236
 57       0.148133935229
 58      -0.305223192161
 59      -0.150419833830
 60      -0.148096699385
 61       0.038600409102
 62      -0.068491303115
 63      -0.170510798843
 64      -0.066869348027
 65       0.068499588551
 66       0.023034466094
 67       0.141364500496
 68       0.000016009343
 69       0.013302011785
 70      -0.141348469652
 71       0.037892936193
 72      -0.494149350938
 73      -0.000051959360
 74       0.021881484504
 75       0.494085809472
 76      -0.275172930563
 77       0.475208798314
 78       0.000052744321
 79      -0.158906113907
 80      -0.475152882099
 81      -0.113556092917
 82       0.105132303245
 83       0.000009837419
 84      -0.065576198268
 85      -0.105116708189
 86       0.009145121026
 87       0.067589978643
 88       0.069174554545
 89      -0.015841775709
 90      -0.067576883997
 91       0.006630590364
 92      -0.036087131348
 93      -0.439522069548
 94      -0.011491324187
 95       0.036041264303
 96      -0.086850849403
 97       0.148179443858
 98       0.305303582108
 99       0.150460124265
100      -0.148134496715
101      -0.038609872234
102      -0.068468944034
103       0.170515935894
104       0.066885458010
105       0.068478842171
 Sym=     1a
 Ene= -7.33229132769049E-01
 Spin= Alpha
 Occup= 2.000000
  1      -0.000000006079
  2       0.000000191163
  3       0.002433179424
  4       0.000000010643
  5       0.000000473390
  6      -0.000000046352
  7       0.000002146965
  8       0.026658730660
  9       0.000000079995
 10       0.000005299478
 11      -0.000000719213
 12      -0.000058077626
 13      -0.640753754114
 14       0.000001246141
 15      -0.000143490341
 16       0.000000715012
 17       0.000164762922
 18       1.868657850732
 19      -0.000001241401
 20       0.000407185426
 21      -0.000000556358
 22      -0.000087498874
 23      -0.995354404916
 24       0.000000967798
 25      -0.000216549956
 26      -0.010411690492
 27      -0.053674883103
 28       0.146534360026
 29       0.018038490204
 30      -0.053649441500
 31      -0.015625075682
 32       0.328869755187
 33      -0.369972903869
 34       0.027070587763
 35       0.328780858058
 36       0.125465584953
 37      -0.236949140739
 38       0.442085720441
 39      -0.217369836732
 40      -0.236863609215
 41       0.051630839849
 42      -0.120039547208
 43       0.026629425088
 44      -0.089451329388
 45      -0.120020442371
 46       0.010421233864
 47      -0.053654861837
 48       0.146554700368
 49      -0.018038647069
 50       0.053714833422
 51       0.015639325890
 52       0.328737030609
 53      -0.370106934082
 54      -0.027070645289
 55      -0.328946618473
 56      -0.125576404062
 57      -0.236854912857
 58       0.442180623540
 59       0.217369640137
 60       0.237056453167
 61      -0.051677412527
 62      -0.119986653893
 63       0.026681371207
 64       0.089451023535
 65       0.120031717011
 66      -0.010419416737
 67       0.053678961442
 68       0.146565344654
 69       0.018042052946
 70       0.053704404094
 71      -0.015636558624
 72      -0.328798122319
 73      -0.370167243909
 74       0.027076131936
 75      -0.328887021117
 76       0.125554294689
 77       0.236929634838
 78       0.442222698364
 79      -0.217409334798
 80       0.237015166572
 81       0.051667935044
 82       0.119990651009
 83       0.026703235320
 84      -0.089467406123
 85       0.120009754413
 86       0.010409818382
 87       0.053702339230
 88       0.146541556305
 89      -0.018041801655
 90      -0.053642368093
 91       0.015621980861
 92      -0.328939349053
 93      -0.370024445276
 94      -0.027075506640
 95       0.328729763073
 96      -0.125442744287
 97       0.237028496948
 98       0.442122357423
 99       0.217408262039
100      -0.236826957128
101      -0.051621282050
102       0.120044232943
103       0.026650157313
104       0.089467568963
105      -0.119999174810
 Sym=     1a
 Ene= -2.08430621215184E-01
 Spin= Alpha
 Occup= 2.000000
  1       0.000000085869
  2       0.000000098714
  3      -0.006405756539
  4      -0.000000149675
  5       0.000000272382
  6       0.000000766571
  7       0.000000843545
  8      -0.054495508671
  9      -0.000001337843
 10       0.000002313866
 11       0.000005434304
 12       0.000009526263
 13      -0.456338075225
 14      -0.000009483876
 15       0.000024513481
 16      -0.000001490167
 17      -0.000012392503
 18       0.366851727071
 19       0.000002600946
 20      -0.000028887290
 21       0.000006385438
 22       0.000019198011
 23      -0.859692910653
 24      -0.000011142790
 25       0.000046740058
 26      -0.018105387189
 27      -0.011804354737
 28       0.005814786192
 29       0.031357775465
 30      -0.011805653335
 31       0.049340604613
 32       0.098104429308
 33      -0.023327727795
 34      -0.085455498245
 35       0.098110630173
 36      -0.018359653642
 37      -0.115851926259
 38       0.101877595111
 39       0.031798832706
 40      -0.115860586200
 41       0.025661168453
 42      -0.061151327281
 43      -0.083009189380
 44      -0.044443551374
 45      -0.061150935808
 46       0.018101581068
 47      -0.011803449868
 48       0.005816971187
 49      -0.031356827132
 50       0.011799227545
 51      -0.049329180262
 52       0.098112132726
 53      -0.023324233153
 54       0.085451852580
 55      -0.098093444294
 56       0.018356707823
 57      -0.115863856282
 58       0.101868185560
 59      -0.031795858351
 60       0.115839513778
 61      -0.025652391887
 62      -0.061154538965
 63      -0.083012688702
 64       0.044436818867
 65       0.061160429554
 66      -0.018102830993
 67       0.011803933561
 68       0.005811981590
 69       0.031356710322
 70       0.011802647012
 71       0.049333548104
 72      -0.098110928303
 73      -0.023307752267
 74      -0.085453189171
 75      -0.098104766136
 76      -0.018358622022
 77       0.115854656588
 78       0.101857662179
 79       0.031799118045
 80       0.115846024929
 81       0.025656826998
 82       0.061168474424
 83      -0.083022229569
 84      -0.044441853462
 85       0.061168863596
 86       0.018105484064
 87       0.011799534003
 88       0.005818081843
 89      -0.031355637253
 90      -0.011803752660
 91      -0.049340109265
 92      -0.098092101073
 93      -0.023332172341
 94       0.085448332504
 95       0.098110775630
 96       0.018357878552
 97       0.115840699491
 98       0.101876239856
 99      -0.031795640056
100      -0.115865035872
101      -0.025658041608
102       0.061155725138
103      -0.083008168677
104       0.044435396525
105      -0.061149853651
 Sym=     1a
 Ene= 7.04173446267290E-02
 Spin= Alpha
 Occup= 0.000000
  1       0.000000007692
  2      -0.003388592010
  3      -0.000000189277
  4      -0.000000061372
  5      -0.003391385663
  6       0.000000070085
  7      -0.030958904690
  8      -0.000001944326
  9      -0.000000510537
 10      -0.030984428126
 11       0.000000535707
 12      -0.222610443577
 13      -0.000007606141
 14      -0.000003152885
 15      -0.222793971840
 16      -0.000000187896
 17       0.149149651932
 18      -0.000003643253
 19      -0.000001141768
 20       0.149272620079
 21       0.000000304153
 22      -0.450535391202
 23      -0.000019943878
 24      -0.000005910214
 25      -0.450906829750
 26       0.010097996116
 27       0.011094571954
 28      -0.003394681502
 29      -0.017463325322
 30       0.011109278426
 31      -0.030710342290
 32      -0.010089935359
 33       0.071626288569
 34       0.053120012420
 35      -0.010172018129
 36       0.016825475516
 37       0.040291792037
 38      -0.087420417055
 39      -0.029120092391
 40       0.040416435264
 41      -0.013308636884
 42      -0.188169737405
 43      -0.114909069072
 44       0.022991725534
 45      -0.188231129654
 46       0.027567303910
 47       0.017925564978
 48       0.000002655346
 49       0.015905609711
 50       0.017933808620
 51      -0.073998318278
 52      -0.099650032887
 53      -0.000033787320
 54      -0.042692454354
 55      -0.099659755599
 56       0.022152395288
 57       0.149852092473
 58       0.000040215299
 59       0.012774167494
 60       0.149890436415
 61      -0.058421122626
 62      -0.077279988972
 63       0.000033346324
 64      -0.033717441077
 65      -0.077431327624
 66      -0.010099505801
 67       0.011093884081
 68       0.003395116958
 69       0.017467316683
 70       0.011108729787
 71       0.030714617199
 72      -0.010088592989
 73      -0.071631508463
 74      -0.053130329178
 75      -0.010170760940
 76      -0.016828007736
 77       0.040293262483
 78       0.087432690286
 79       0.029127301599
 80       0.040415635164
 81       0.013312139427
 82      -0.188154024793
 83       0.114880048112
 84      -0.023005636449
 85      -0.188220127869
 86      -0.027565847006
 87       0.017925014440
 88      -0.000000143214
 89      -0.015906332229
 90       0.017935070138
 91       0.073994562264
 92      -0.099652741578
 93       0.000025245114
 94       0.042692884265
 95      -0.099659721165
 96      -0.022150195653
 97       0.149857720290
 98      -0.000031835866
 99      -0.012771940676
100       0.149885894245
101       0.058418654428
102      -0.077277554099
103      -0.000061341864
104       0.033714749121
105      -0.077436392059
 Sym=     1a
 Ene= 7.04182242506586E-02
 Spin= Alpha
 Occup= 0.000000
  1       0.000000041984
  2       0.003391395174
  3      -0.000000067802
  4       0.000000050091
  5      -0.003388601521
  6       0.000000337126
  7       0.030984611718
  8      -0.000000711413
  9       0.000000410875
 10      -0.030959088255
 11       0.000001914777
 12       0.222790539938
 13      -0.000002410601
 14       0.000002458404
 15      -0.222607016938
 16       0.000001334307
 17      -0.149263054230
 18      -0.000002082267
 19       0.000001196962
 20       0.149140098944
 21       0.000004897117
 22       0.450900526281
 23      -0.000006799658
 24       0.000005223107
 25      -0.450529095013
 26       0.027557298249
 27      -0.017933740558
 28       0.000001876178
 29       0.015920080161
 30       0.017924984935
 31      -0.073969343131
 32       0.099657633179
 33      -0.000031151869
 34      -0.042735825217
 35      -0.099649025164
 36       0.022137525992
 37      -0.149885372168
 38       0.000037528884
 39       0.012796910909
 40       0.149850423432
 41      -0.058406133135
 42       0.077435949874
 43       0.000041836435
 44      -0.033733148177
 45      -0.077282184934
 46       0.010075411445
 47      -0.011109166125
 48       0.003394549055
 49      -0.017479104570
 50       0.011094582772
 51      -0.030650342067
 52       0.010174018809
 53      -0.071626971053
 54       0.053162152694
 55      -0.010092081859
 56       0.016807756995
 57      -0.040419604077
 58       0.087426275713
 59      -0.029136655870
 60       0.040293353677
 61      -0.013259664633
 62       0.188219770310
 63       0.114889469236
 64       0.023031913031
 65      -0.188161897292
 66      -0.027559489748
 67      -0.017933250120
 68      -0.000000921593
 69      -0.015920809836
 70       0.017923708432
 71       0.073976298742
 72       0.099654063057
 73       0.000027876027
 74       0.042739022482
 75      -0.099645972734
 76      -0.022143914595
 77      -0.149882363129
 78      -0.000034519187
 79      -0.012800997351
 80       0.149850799834
 81       0.058413551407
 82       0.077433867213
 83      -0.000052848202
 84       0.033738012716
 85      -0.077277452827
 86      -0.010076130419
 87      -0.011109664431
 88      -0.003394388418
 89       0.017476845545
 90       0.011094697548
 91       0.030651537218
 92       0.010175082276
 93       0.071624927855
 94      -0.053156621884
 95      -0.010092774407
 96      -0.016809479366
 97      -0.040417097496
 98      -0.087421647891
 99       0.029132255647
100       0.040296337078
101       0.013265568098
102       0.188230818074
103      -0.114900896781
104      -0.023022305408
105      -0.188161190820
 Sym=     1a
 Ene= 1.17322807894246E-01
 Spin= Alpha
 Occup= 0.000000
  1      -0.002031895917
  2      -0.000000068299
  3      -0.000000093182
  4       0.003519346941
  5      -0.000000029480
  6      -0.018279438716
  7      -0.000000717060
  8      -0.000001001809
  9       0.031660916380
 10      -0.000000308363
 11      -0.122000978750
 12      -0.000001085733
 13      -0.000004404595
 14       0.211311892477
 15      -0.000000581113
 16      -0.000030849031
 17      -0.000004895677
 18       0.000000195035
 19       0.000053431848
 20      -0.000001840838
 21      -0.119233303897
 22      -0.000006297759
 23      -0.000012162431
 24       0.206518139208
 25      -0.000002877244
 26       0.025140163004
 27      -0.012991311571
 28       0.027304554791
 29      -0.043544506709
 30      -0.012990974568
 31      -0.090872288255
 32       0.047850228737
 33      -0.092975023179
 34       0.157397604220
 35       0.047849480619
 36       0.082309785591
 37      -0.040898549041
 38       0.069633907888
 39      -0.142568056835
 40      -0.040898968952
 41      -0.154635792272
 42       0.022460397629
 43      -0.023978587072
 44       0.267834101152
 45       0.022457944941
 46       0.025141199292
 47       0.012991243025
 48      -0.027302046145
 49      -0.043544619529
 50      -0.012991999059
 51      -0.090876867597
 52      -0.047850050679
 53       0.092966215632
 54       0.157397831629
 55       0.047851601540
 56       0.082316368507
 57       0.040899064371
 58      -0.069624409800
 59      -0.142567988552
 60      -0.040897707228
 61      -0.154628307272
 62      -0.022472298108
 63       0.023970032879
 64       0.267831367432
 65       0.022478381892
 66       0.025140085400
 67       0.012990631833
 68       0.027303458029
 69      -0.043543437737
 70       0.012990968870
 71      -0.090872548509
 72      -0.047849131639
 73      -0.092971766628
 74       0.157393686196
 75      -0.047849879470
 76       0.082312070037
 77       0.040898189785
 78       0.069633130931
 79      -0.142565361108
 80       0.040897768939
 81      -0.154628130792
 82      -0.022470897159
 83      -0.023985221197
 84       0.267826723379
 85      -0.022473350855
 86       0.025140336105
 87      -0.012992152461
 88      -0.027302512934
 89      -0.043545553834
 90       0.012991396914
 91      -0.090872742237
 92       0.047851743612
 93       0.092967683602
 94       0.157401724072
 95      -0.047850194819
 96       0.082309579723
 97      -0.040898057291
 98      -0.069624855187
 99      -0.142572514891
100       0.040899416726
101      -0.154636602375
102       0.022473203055
103       0.023967314659
104       0.267831166328
105      -0.022467117927
 Sym=     1a
 Ene= 1.35665368672591E-01
 Spin= Alpha
 Occup= 0.000000
  1       0.003125718070
  2      -0.000000089856
  3      -0.000000000346
  4       0.001804634180
  5       0.000000038936
  6       0.028775079383
  7      -0.000000960318
  8      -0.000000003289
  9       0.016613299917
 10       0.000000414702
 11       0.182112146771
 12       0.000000255522
 13      -0.000000022857
 14       0.105142497689
 15      -0.000000024146
 16       0.030038485438
 17      -0.000010305362
 18       0.000000015111
 19       0.017342727375
 20       0.000004266810
 21       0.149548192669
 22      -0.000006770969
 23      -0.000000045628
 24       0.086341690124
 25       0.000003005306
 26      -0.049076141394
 27      -0.025369789631
 28       0.000000355938
 29      -0.028334337009
 30       0.025369576737
 31       0.172372582874
 32       0.089081384731
 33      -0.000001388777
 34       0.099520503224
 35      -0.089081384000
 36      -0.156121690465
 37      -0.067685667895
 38       0.000000381889
 39      -0.090138868098
 40       0.067685282149
 41       0.295124514517
 42       0.048069116078
 43      -0.000003773543
 44       0.170388095047
 45      -0.048070726105
 46      -0.049075471430
 47       0.025367992410
 48       0.000000879904
 49      -0.028333186378
 50       0.025368513531
 51       0.172370315726
 52      -0.089077781894
 53      -0.000003395294
 54       0.099515146421
 55      -0.089077818971
 56      -0.156119856699
 57       0.067684184513
 58       0.000000915294
 59      -0.090130946719
 60       0.067685142566
 61       0.295117146061
 62      -0.048073835446
 63      -0.000009360905
 64       0.170391252735
 65      -0.048069794587
 66      -0.049074764889
 67       0.025367339005
 68      -0.000000352664
 69      -0.028333110955
 70      -0.025367549887
 71       0.172366706351
 72      -0.089075109589
 73       0.000001377126
 74       0.099514807043
 75       0.089075090502
 76      -0.156114866533
 77       0.067682743780
 78      -0.000000361103
 79      -0.090130988841
 80      -0.067683105550
 81       0.295121610101
 82      -0.048073339025
 83       0.000003745567
 84       0.170390659339
 85       0.048071753279
 86      -0.049075611910
 87      -0.025369432310
 88      -0.000000876670
 89      -0.028334372816
 90      -0.025368912560
 91       0.172370554817
 92       0.089080417786
 93       0.000003384149
 94       0.099521101393
 95       0.089080398843
 96      -0.156119085688
 97      -0.067686237972
 98      -0.000000895227
 99      -0.090140296161
100      -0.067685303068
101       0.295122058556
102       0.048068751285
103       0.000009334076
104       0.170383519056
105       0.048072768327
 Sym=     1a
 Ene= 2.44566406630702E-01
 Spin= Alpha
 Occup= 0.000000
  1       0.000176765865
  2      -0.000000490357
  3       0.000000044057
  4      -0.000306167473
  5      -0.000000209022
  6       0.001512979615
  7      -0.000001771099
  8       0.000000553690
  9      -0.002620557693
 10      -0.000000755976
 11       0.007609544374
 12      -0.000035679154
 13       0.000000922039
 14      -0.013180117869
 15      -0.000015170357
 16      -0.001389677371
 17       0.000042738725
 18       0.000003732563
 19       0.002406991077
 20       0.000018122607
 21       0.031173513360
 22      -0.000087946489
 23       0.000000740531
 24      -0.053994110060
 25      -0.000037437653
 26       0.004880615288
 27      -0.118260287408
 28      -0.114224799981
 29      -0.008457486473
 30      -0.118256483296
 31      -0.016411520103
 32       0.218792853134
 33       0.203785069442
 34       0.028438770934
 35       0.218781741021
 36       0.016206038327
 37       0.013060491353
 38       0.027391103670
 39      -0.028080486077
 40       0.013068810815
 41      -0.021457587591
 42      -0.286158598741
 43      -0.304985916907
 44       0.037170505227
 45      -0.286181643935
 46       0.004884257146
 47       0.118245501706
 48       0.114221639446
 49      -0.008449848859
 50      -0.118255027384
 51      -0.016422967235
 52      -0.218744793619
 53      -0.203769745931
 54       0.028412765918
 55       0.218772653248
 56       0.016214498171
 57      -0.013101498034
 58      -0.027410631939
 59      -0.028057530812
 60       0.013080589281
 61      -0.021457965759
 62       0.286240709276
 63       0.305002251673
 64       0.037154391068
 65      -0.286183400263
 66       0.004881276610
 67       0.118244782903
 68      -0.114221638557
 69      -0.008450606679
 70       0.118248586950
 71      -0.016413415147
 72      -0.218740674253
 73       0.203768889182
 74       0.028415686231
 75      -0.218751785629
 76       0.016207176951
 77      -0.013108204564
 78       0.027412751115
 79      -0.028060851453
 80      -0.013099886602
 81      -0.021456276986
 82       0.286244043597
 83      -0.305002568677
 84       0.037158483879
 85       0.286221003592
 86       0.004876789038
 87      -0.118259715994
 88       0.114222932300
 89      -0.008456778898
 90       0.118250190365
 91      -0.016398525785
 92       0.218789128407
 93      -0.203776349431
 94       0.028435727063
 95      -0.218761269350
 96       0.016194584030
 97       0.013064796591
 98      -0.027401836343
 99      -0.028076645561
100      -0.013085704424
101      -0.021449900940
102      -0.286158289478
103       0.304995533977
104       0.037164220652
105       0.286215596903
 Sym=     1a
 Ene= 2.58691639313071E-01
 Spin= Alpha
 Occup= 0.000000
  1      -0.000000000807
  2       0.000000045327
  3      -0.005682111548
  4       0.000000001197
  5       0.000000120048
  6      -0.000000057828
  7       0.000000209588
  8      -0.018087800098
  9       0.000000098658
 10       0.000000538712
 11       0.000000476254
 12       0.000001396510
 13      -0.500348462615
 14      -0.000000839565
 15       0.000004744912
 16      -0.000002156205
 17       0.000000950958
 18       0.695530856904
 19       0.000003753350
 20      -0.000000097706
 21       0.000001805891
 22       0.000003237528
 23      -1.068645359257
 24      -0.000003166656
 25       0.000010684900
 26      -0.038302585227
 27      -0.027237534302
 28      -0.094766593576
 29       0.066337831479
 30      -0.027235161067
 31       0.121508600367
 32       0.129274634498
 33       0.315715864515
 34      -0.210443101042
 35       0.129266492035
 36      -0.097083263757