[Molden Format]
[Atoms] AU
   N     1    7      0.98265751     0.99683046     0.96848457
   N     2    7     -0.98265751    -0.98738183     0.98738183
   N     3    7     -0.98265751     0.97793320    -0.97793320
   N     4    7      0.98265751    -0.98738183    -0.97793320
[GTO]
    1  0
  s      5  0
  1712.84158530    -0.00539341
   257.64812677    -0.04022158
    58.45824585    -0.17931145
    16.19836791    -0.46376318
     5.00526008    -0.44171423
  s      1  0
     0.58731857     1.00000000
  s      1  0
     0.18764592     1.00000000
  p      3  0
    13.57147023    -0.04007240
     2.92573729    -0.21807045
     0.79927751    -0.51294466
  p      1  0
     0.21954348     1.00000000
  d      1  0
     1.00000000     1.00000000

    2  0
  s      5  0
  1712.84158530    -0.00539341
   257.64812677    -0.04022158
    58.45824585    -0.17931145
    16.19836791    -0.46376318
     5.00526008    -0.44171423
  s      1  0
     0.58731857     1.00000000
  s      1  0
     0.18764592     1.00000000
  p      3  0
    13.57147023    -0.04007240
     2.92573729    -0.21807045
     0.79927751    -0.51294466
  p      1  0
     0.21954348     1.00000000
  d      1  0
     1.00000000     1.00000000

    3  0
  s      5  0
  1712.84158530    -0.00539341
   257.64812677    -0.04022158
    58.45824585    -0.17931145
    16.19836791    -0.46376318
     5.00526008    -0.44171423
  s      1  0
     0.58731857     1.00000000
  s      1  0
     0.18764592     1.00000000
  p      3  0
    13.57147023    -0.04007240
     2.92573729    -0.21807045
     0.79927751    -0.51294466
  p      1  0
     0.21954348     1.00000000
  d      1  0
     1.00000000     1.00000000

    4  0
  s      5  0
  1712.84158530    -0.00539341
   257.64812677    -0.04022158
    58.45824585    -0.17931145
    16.19836791    -0.46376318
     5.00526008    -0.44171423
  s      1  0
     0.58731857     1.00000000
  s      1  0
     0.18764592     1.00000000
  p      3  0
    13.57147023    -0.04007240
     2.92573729    -0.21807045
     0.79927751    -0.51294466
  p      1  0
     0.21954348     1.00000000
  d      1  0
     1.00000000     1.00000000

[MO]
Sym=        a    
Ene=    -15.76317
Spin=       Alpha
Occup=    2.00000
     1    0.500895582464
     2   -0.018596888920
     3    0.004302205160
     4   -0.001091206251
     5   -0.001103090271
     6   -0.001080172997
     7   -0.001210224389
     8   -0.001216481120
     9   -0.001220359122
    10    0.000584227630
    11    0.000591398138
    12    0.000574860024
    13    0.000212467517
    14    0.000205443973
    15    0.000207736606
    16    0.503046555573
    17   -0.018637851584
    18    0.004236054571
    19    0.001089564691
    20    0.001094126885
    21   -0.001100058067
    22    0.001172389485
    23    0.001167686173
    24   -0.001211365289
    25    0.000585171038
    26    0.000586732335
    27    0.000581536508
    28    0.000208062297
    29   -0.000210077121
    30   -0.000206281082
    31    0.485698895207
    32   -0.018125001464
    33    0.004055570584
    34    0.001063722946
    35   -0.001055839738
    36    0.001058180937
    37    0.001194804747
    38   -0.001184157972
    39    0.001183206003
    40    0.000580735965
    41    0.000579432926
    42    0.000581731990
    43   -0.000207202835
    44    0.000216839354
    45   -0.000213680876
    46    0.490820257039
    47   -0.018263708681
    48    0.004057589846
    49   -0.001069833197
    50    0.001073857423
    51    0.001063784273
    52   -0.001177661992
    53    0.001166849969
    54    0.001159946659
    55    0.000580358641
    56    0.000583108957
    57    0.000582543208
    58   -0.000205310229
    59   -0.000215576154
    60    0.000212852499
Sym=        a    
Ene=    -15.76247
Spin=       Alpha
Occup=    2.00000
     1   -0.607446004979
     2    0.020195717783
     3   -0.014943576023
     4    0.001365768378
     5    0.001386940926
     6    0.001249857726
     7    0.003477511463
     8    0.003731247816
     9    0.001638548232
    10   -0.000023738994
    11    0.000011240506
    12   -0.000309314838
    13    0.000343746562
    14    0.000023813128
    15    0.000053653988
    16    0.770710819456
    17   -0.025572349047
    18    0.018979678196
    19    0.001696275788
    20    0.001715284547
    21   -0.001659886567
    22    0.004011971081
    23    0.004253040954
    24   -0.002986536904
    25    0.000091586392
    26    0.000055079761
    27    0.000251171227
    28   -0.000302984004
    29    0.000109467042
    30    0.000144209184
    31   -0.131966225700
    32    0.004407118010
    33   -0.003226547194
    34   -0.000174414278
    35    0.000391206814
    36   -0.000297911703
    37    0.001012062080
    38    0.002132769315
    39   -0.000824067929
    40   -0.000300516275
    41    0.000217351250
    42    0.000004790930
    43   -0.000002657483
    44   -0.000217322469
    45   -0.000304925504
    46   -0.039383691049
    47    0.001310725321
    48   -0.000887180810
    49    0.000181305150
    50    0.000029962071
    51   -0.000109325969
    52    0.001574711564
    53    0.001570584816
    54   -0.000507649607
    55    0.000219971165
    56   -0.000294362476
    57    0.000047546240
    58    0.000044279209
    59   -0.000292118443
    60   -0.000220950701
Sym=        a    
Ene=    -15.76245
Spin=       Alpha
Occup=    2.00000
     1   -0.464199301979
     2    0.015382786769
     3   -0.011518830017
     4    0.000931082494
     5    0.001060109097
     6    0.001095653570
     7    0.000789109981
     8    0.002675365641
     9    0.003326190266
    10   -0.000311207071
    11   -0.000008425713
    12    0.000105786335
    13   -0.000065150132
    14    0.000059950658
    15    0.000360711658
    16   -0.325314573118
    17    0.010756750235
    18   -0.008027832520
    19   -0.000736786415
    20   -0.000612005224
    21    0.000809750145
    22   -0.001850377691
    23    0.000027874793
    24    0.002872064549
    25   -0.000003552157
    26   -0.000309223089
    27    0.000164770307
    28   -0.000129908150
    29   -0.000341634466
    30   -0.000036957986
    31   -0.005718916785
    32    0.000188372316
    33   -0.000256791321
    34   -0.000056705156
    35    0.000086583153
    36    0.000116084804
    37   -0.000796028610
    38    0.001140667548
    39    0.001752463589
    40    0.000123064302
    41    0.000180107209
    42   -0.000297898003
    43   -0.000305947646
    44   -0.000178461842
    45    0.000119019781
    46    0.812779848290
    47   -0.026995315052
    48    0.019954273410
    49   -0.001765540746
    50    0.001791813302
    51    0.001830610438
    52   -0.003480636752
    53    0.003820408228
    54    0.004492584319
    55    0.000213734058
    56    0.000160416214
    57    0.000045232018
    58    0.000099055696
    59    0.000217692759
    60   -0.000269819992
Sym=        a    
Ene=    -15.76243
Spin=       Alpha
Occup=    2.00000
     1   -0.382473577946
     2    0.012648699264
     3   -0.009522397732
     4    0.000924740049
     5    0.000739222636
     6    0.000901496000
     7    0.002823452710
     8    0.000235882802
     9    0.002539985010
    10    0.000106575210
    11   -0.000330240804
    12    0.000062738260
    13   -0.000013894163
    14    0.000379830234
    15   -0.000052982018
    16   -0.169650369823
    17    0.005597614784
    18   -0.004275179194
    19   -0.000255164737
    20   -0.000430222823
    21    0.000444352864
    22    0.000961963135
    23   -0.001624266507
    24    0.001836863966
    25   -0.000312622200
    26    0.000104457396
    27    0.000142761007
    28   -0.000118592701
    29    0.000084360718
    30   -0.000337946283
    31    0.853402016692
    32   -0.028361643159
    33    0.021041846660
    34    0.001928326985
    35   -0.001859360713
    36    0.001906018438
    37    0.004406661027
    38   -0.003879758905
    39    0.004132386521
    40    0.000095685039
    41    0.000189864236
    42    0.000138354316
    43    0.000203832363
    44   -0.000257496781
    45    0.000162253997
    46   -0.280334492427
    47    0.009289590183
    48   -0.007057077064
    49    0.000694009195
    50   -0.000662253732
    51   -0.000503377477
    52    0.002484932523
    53   -0.002001730665
    54    0.000309499555
    55    0.000138686285
    56    0.000056658748
    57   -0.000318038590
    58   -0.000352248384
    59    0.000029514829
    60   -0.000109342883
Sym=        a    
Ene=     -1.66688
Spin=       Alpha
Occup=    2.00000
     1    0.124661257232
     2    0.247046245679
     3    0.063570917753
     4    0.079798335489
     5    0.079883437441
     6    0.079684191695
     7   -0.019427139423
     8   -0.019564942806
     9   -0.019289103308
    10    0.006756399177
    11    0.006865217813
    12    0.006645958789
    13    0.007428555348
    14    0.007347562641
    15    0.007386901757
    16    0.123821951217
    17    0.245386956345
    18    0.062981508667
    19   -0.078645024187
    20   -0.079153837762
    21    0.080063495121
    22    0.019159229869
    23    0.019222623626
    24   -0.019390169853
    25    0.006646983716
    26    0.006747644604
    27    0.006782001708
    28    0.007310101192
    29   -0.007385727317
    30   -0.007410483477
    31    0.125500303621
    32    0.248704420609
    33    0.064194075029
    34   -0.080937909245
    35    0.079486707720
    36   -0.080411501279
    37    0.019709482928
    38   -0.019468854534
    39    0.019643214059
    40    0.006866990948
    41    0.006729117900
    42    0.006763552869
    43   -0.007388599749
    44    0.007466901593
    45   -0.007364126177
    46    0.124650442107
    47    0.247025339926
    48    0.063582464223
    49    0.079783587331
    50   -0.080293029362
    51   -0.079258082281
    52   -0.019430863991
    53    0.019496319678
    54    0.019366701305
    55    0.006755613691
    56    0.006857562833
    57    0.006653512461
    58   -0.007412509653
    59   -0.007363266544
    60    0.007386861959
Sym=        a    
Ene=     -1.04561
Spin=       Alpha
Occup=    2.00000
     1    0.153368557584
     2    0.319630652658
     3    0.270603544074
     4    0.030497363559
     5   -0.102183565217
     6    0.094962321224
     7   -0.034999864256
     8    0.003769688980
     9   -0.054187150786
    10    0.010123793040
    11   -0.001176337107
    12    0.015561711927
    13   -0.004104150634
    14    0.008060820066
    15   -0.000012216839
    16   -0.164345038528
    17   -0.342330548396
    18   -0.289923428471
    19    0.034928638767
    20   -0.095565891835
    21   -0.083075036978
    22   -0.038170193709
    23    0.000109107583
    24    0.053010427585
    25   -0.011080150644
    26    0.000041321731
    27   -0.015266632670
    28    0.003331054622
    29    0.007705658929
    30   -0.000349418959
    31    0.090023269612
    32    0.187646726220
    33    0.159160547807
    34   -0.108232961537
    35   -0.139359966467
    36   -0.042336928073
    37    0.047408472861
    38    0.025673756411
    39    0.027843733564
    40    0.013722282286
    41   -0.007318571630
    42    0.007986722997
    43    0.001809937078
    44    0.009472728138
    45    0.005800086029
    46   -0.080321794524
    47   -0.167262238676
    48   -0.142353604970
    49   -0.101006722346
    50   -0.142898447046
    51    0.053471877492
    52    0.043745870206
    53    0.028157042172
    54   -0.029650032467
    55   -0.012636885532
    56    0.008295386986
    57   -0.008550518086
    58   -0.002344970965
    59    0.009700809565
    60    0.005281216228
Sym=        a    
Ene=     -1.04218
Spin=       Alpha
Occup=    2.00000
     1    0.042475817339
     2    0.088503085124
     3    0.075695581571
     4   -0.156382518904
     5    0.081009316144
     6    0.080387338105
     7    0.039048937026
     8   -0.031215842597
     9   -0.031433064593
    10   -0.011204845331
    11    0.009064588859
    12    0.008954868989
    13   -0.004601485931
    14   -0.004451328984
    15    0.010057447194
    16   -0.116529617083
    17   -0.242800567848
    18   -0.206975224842
    19   -0.115213898600
    20    0.120812792994
    21   -0.007941436586
    22    0.014206072027
    23   -0.055782336593
    24    0.022595128878
    25    0.003940950746
    26   -0.016134967933
    27   -0.006475034804
    28   -0.000678266975
    29   -0.006245402399
    30    0.008319518566
    31   -0.115952885179
    32   -0.241592703049
    33   -0.207251733212
    34   -0.115620022717
    35   -0.006976013840
    36    0.122547617317
    37    0.013999739153
    38    0.022138374007
    39   -0.056764120012
    40    0.004089577770
    41   -0.006449580152
    42   -0.016265346480
    43   -0.006335358779
    44   -0.000794362936
    45    0.008269818126
    46    0.190007753656
    47    0.395891853574
    48    0.338540335162
    49   -0.074424156352
    50   -0.049489235805
    51   -0.047369153048
    52   -0.010855258671
    53    0.047794158370
    54    0.046844131826
    55    0.003176544186
    56    0.013818157510
    57    0.013487484287
    58    0.001000006614
    59    0.001050293612
    60    0.006530978615
Sym=        a    
Ene=     -1.03880
Spin=       Alpha
Occup=    2.00000
     1    0.152881318961
     2    0.318467438160
     3    0.275015865068
     4    0.025415509837
     5    0.092396868566
     6   -0.104910500437
     7   -0.034688903694
     8   -0.054519743392
     9    0.004624197078
    10    0.009991456180
    11    0.015760172771
    12   -0.001136097504
    13    0.007828602827
    14   -0.004272878042
    15   -0.000277078003
    16    0.091027124052
    17    0.189584777081
    18    0.163398439963
    19   -0.106554526906
    20   -0.040906029615
    21   -0.137348645557
    22    0.047727123544
    23    0.028248870058
    24    0.025072801185
    25    0.013664292120
    26    0.008184598511
    27   -0.007197020553
    28    0.009405706088
    29    0.001454201843
    30    0.005552221918
    31   -0.164232819213
    32   -0.342288522895
    33   -0.295492957956
    34    0.033364945535
    35   -0.082181086951
    36   -0.099156599682
    37   -0.039072315469
    38    0.052996574501
    39    0.000738448337
    40   -0.011210329884
    41   -0.015290976295
    42    0.000095591325
    43    0.007652647607
    44    0.003456827810
    45   -0.000471751171
    46   -0.078390164667
    47   -0.163424098582
    48   -0.140375007097
    49   -0.101384770355
    50    0.051987611990
    51   -0.146156768019
    52    0.043844806276
    53   -0.029158329038
    54    0.030141935785
    55   -0.012573477569
    56   -0.008392106930
    57    0.008396737685
    58    0.009715807679
    59   -0.002509927966
    60    0.005534789335
Sym=        a    
Ene=     -0.69297
Spin=       Alpha
Occup=    2.00000
     1    0.064651970586
     2    0.129869300927
     3    0.184832159399
     4   -0.167350692970
     5   -0.169716996126
     6   -0.164994104188
     7    0.080598831804
     8    0.082076799328
     9    0.079135876298
    10   -0.000595944457
    11   -0.000869547198
    12   -0.000328167127
    13   -0.012154895411
    14   -0.011689158047
    15   -0.011920785572
    16    0.064652633105
    17    0.129947717816
    18    0.185270588371
    19    0.165596224349
    20    0.166480722727
    21   -0.166429940698
    22   -0.079651952310
    23   -0.079886962223
    24    0.079715968544
    25   -0.000544171302
    26   -0.000640620050
    27   -0.000666579580
    28   -0.011898163880
    29    0.011825963542
    30    0.011892511548
    31    0.064636418716
    32    0.129754413038
    33    0.184317237586
    34    0.169129795912
    35   -0.168249143115
    36    0.168263780806
    37   -0.081586952064
    38    0.081491337510
    39   -0.081358555554
    40   -0.000653970547
    41   -0.000523390073
    42   -0.000558958943
    43    0.012021315555
    44   -0.011953378006
    45    0.011954831196
    46    0.064650094643
    47    0.129861378514
    48    0.184824221202
    49   -0.167327558419
    50    0.168230891732
    51    0.166480379268
    52    0.080589225430
    53   -0.080840489051
    54   -0.080377031901
    55   -0.000596116546
    56   -0.000694467819
    57   -0.000503008407
    58    0.011989416369
    59    0.011856411074
    60   -0.011924842749
Sym=        a    
Ene=     -0.57731
Spin=       Alpha
Occup=    2.00000
     1   -0.070904422439
     2   -0.163834876523
     3   -0.118051368308
     4    0.042061580275
     5    0.031614146705
     6    0.296219887218
     7   -0.050915923747
     8   -0.045543763834
     9   -0.186016313384
    10   -0.008336613812
    11   -0.008763363943
    12    0.012141118901
    13   -0.002352381098
    14    0.004726048517
    15    0.004270211826
    16    0.116112424781
    17    0.268569735442
    18    0.193139918907
    19    0.165611900950
    20    0.168968079596
    21   -0.261153559789
    22   -0.134174252374
    23   -0.137014660736
    24    0.185592999772
    25    0.005033705832
    26    0.005136810217
    27   -0.002205444708
    28   -0.001888758370
    29    0.004133403556
    30    0.004439830423
    31   -0.023356729499
    32   -0.053892528520
    33   -0.039052090327
    34   -0.246332359149
    35   -0.111171197064
    36    0.015446637701
    37    0.140704591833
    38    0.049730660909
    39    0.000799434506
    40    0.015815701736
    41   -0.012441645608
    42   -0.005042153289
    43   -0.001994660583
    44    0.004647548550
    45    0.004809542402
    46   -0.021294181158
    47   -0.049118238216
    48   -0.035990751666
    49   -0.106355848519
    50   -0.234688692775
    51    0.022897004032
    52    0.047800599052
    53    0.132381313886
    54   -0.003927417841
    55   -0.012110016115
    56    0.015754979488
    57   -0.005144407961
    58   -0.002066304152
    59    0.004466502151
    60    0.004016347498
Sym=        a    
Ene=     -0.57619
Spin=       Alpha
Occup=    2.00000
     1   -0.068920208783
     2   -0.159423531875
     3   -0.113978946618
     4    0.294602740428
     5    0.027853703848
     6    0.032386186627
     7   -0.184986374473
     8   -0.043007443430
     9   -0.045018629297
    10    0.012460931912
    11   -0.008404405627
    12   -0.008814120308
    13    0.004088543984
    14    0.004549176363
    15   -0.002532700358
    16   -0.025826430087
    17   -0.059727766992
    18   -0.043096223534
    19    0.013306761803
    20   -0.237628336436
    21   -0.095073534459
    22    0.003518439044
    23    0.135779215646
    24    0.040019234147
    25   -0.005075628749
    26    0.015380027683
    27   -0.012061869528
    28    0.004028096601
    29    0.004033073718
    30   -0.002250218173
    31   -0.021668000837
    32   -0.050132808393
    33   -0.035424014830
    34    0.022883296784
    35   -0.112893435743
    36   -0.250974872606
    37   -0.003368316012
    38    0.051524575349
    39    0.143729789817
    40   -0.005491898283
    41   -0.012104666911
    42    0.016078182416
    43    0.005043635429
    44    0.004860840407
    45   -0.002138425215
    46    0.116404773382
    47    0.269294783814
    48    0.192394199517
    49   -0.255718393071
    50    0.182327679245
    51    0.161005943359
    52    0.183470605098
    53   -0.145476004264
    54   -0.132096609620
    55   -0.001829760582
    56    0.004427315420
    57    0.005436596349
    58    0.004631934654
    59    0.003670104679
    60   -0.002016682127
Sym=        a    
Ene=     -0.57501
Spin=       Alpha
Occup=    2.00000
     1   -0.069272201231
     2   -0.160451441509
     3   -0.113581383362
     4    0.025796927749
     5    0.293223696849
     6    0.032791569250
     7   -0.042233349795
     8   -0.185002985254
     9   -0.045738525792
    10   -0.008688700124
    11    0.012473026522
    12   -0.008499656640
    13    0.003979897574
    14   -0.002507235025
    15    0.004321396229
    16   -0.023330146623
    17   -0.054104292384
    18   -0.038133542380
    19   -0.241087714336
    20    0.018350974510
    21   -0.102087816304
    22    0.137924825991
    23    0.000218918954
    24    0.044930831566
    25    0.015625679824
    26   -0.005156989815
    27   -0.012024695627
    28    0.004312496574
    29   -0.002301696210
    30    0.004319011961
    31    0.115987805919
    32    0.268388102521
    33    0.190356511739
    34    0.174815105442
    35   -0.254808288315
    36    0.169582748940
    37   -0.141568779677
    38    0.183622498994
    39   -0.137792214883
    40    0.004920345731
    41   -0.001877940349
    42    0.005009226759
    43    0.004249588287
    44   -0.001955897810
    45    0.003920087200
    46   -0.023938492695
    47   -0.055532966786
    48   -0.038697861804
    49   -0.107720403690
    50    0.015101964084
    51   -0.250313030607
    52    0.047807958675
    53    0.002171450587
    54    0.144338605830
    55   -0.012236720281
    56   -0.005149094215
    57    0.015765979218
    58    0.004680057944
    59   -0.002242480187
    60    0.004832076852
Sym=        a    
Ene=     -0.54885
Spin=       Alpha
Occup=    2.00000
     1   -0.002044394167
     2   -0.005363673476
     3   -0.001117642642
     4   -0.186188391606
     5    0.258589702727
     6   -0.066100560864
     7    0.121864300475
     8   -0.172079913492
     9    0.042505990749
    10   -0.003863772169
    11    0.005171638847
    12   -0.001435652105
    13    0.004011883719
    14   -0.014969815471
    15    0.011040673992
    16    0.001220364567
    17    0.002688948005
    18    0.001937887696
    19    0.196942049439
    20   -0.263961604088
    21   -0.074988051076
    22   -0.129986702198
    23    0.173317774360
    24    0.049579859167
    25   -0.004155589526
    26    0.005931616606
    27   -0.001736403653
    28    0.004094162089
    29    0.015265986377
    30   -0.011125871687
    31   -0.001148987148
    32   -0.003161317334
    33   -0.000231163060
    34    0.187174049605
    35    0.256380427495
    36    0.062121792697
    37   -0.123081260176
    38   -0.170593793064
    39   -0.040476640374
    40   -0.003863025214
    41    0.004759310039
    42   -0.000978267113
    43   -0.004115176908
    44   -0.014895818727
    45   -0.011203198459
    46    0.002213928583
    47    0.005117032403
    48    0.002954090816
    49   -0.197849145534
    50   -0.260149247906
    51    0.076360040861
    52    0.131229061601
    53    0.170767664128
    54   -0.051108137498
    55   -0.004137397514
    56    0.005889448226
    57   -0.001658860569
    58   -0.003915271622
    59    0.015269450356
    60    0.011128150991
Sym=        a    
Ene=     -0.54354
Spin=       Alpha
Occup=    2.00000
     1    0.001725349573
     2    0.004630214570
     3    0.000572580810
     4   -0.194330501282
     5   -0.072920083484
     6    0.262880799537
     7    0.130665395111
     8    0.049729434396
     9   -0.174147277012
    10   -0.003927112343
    11   -0.001439191717
    12    0.005475773259
    13   -0.015233552432
    14    0.004097605339
    15    0.011093203216
    16    0.000984928331
    17    0.002782350774
    18    0.000001261974
    19    0.194139768616
    20    0.076405169771
    21    0.264573999413
    22   -0.129928251581
    23   -0.051505663388
    24   -0.175261093227
    25   -0.003960394979
    26   -0.001830918567
    27    0.005863562538
    28   -0.015304198463
    29   -0.003965078516
    30   -0.010928921683
    31   -0.001125113898
    32   -0.002458014890
    33   -0.001810186440
    34    0.185228223846
    35   -0.065445167568
    36   -0.257948611739
    37   -0.123550321973
    38    0.043561958667
    39    0.172838673326
    40   -0.003688050299
    41   -0.001168736985
    42    0.004822739819
    43    0.014997057668
    44    0.004004824648
    45   -0.011015307230
    46   -0.001797751438
    47   -0.004151299565
    48   -0.002293221313
    49   -0.184985024017
    50    0.064156239688
    51   -0.260806758411
    52    0.122835435083
    53   -0.042172028730
    54    0.174728793445
    55   -0.003710515849
    56   -0.001200544651
    57    0.004845420827
    58    0.014989152582
    59   -0.004170392811
    60    0.010994086847
Sym=        a    
Ene=      0.18443
Spin=       Alpha
Occup=    0.00000
     1    0.003730937704
     2    0.008865769720
     3    0.027704600059
     4    0.258038305275
     5    0.105686133020
     6   -0.343662445607
     7   -0.375382143625
     8   -0.156411361753
     9    0.490146368762
    10    0.000512497780
    11    0.000444123601
    12    0.000176277339
    13   -0.005644182973
    14    0.001866993387
    15    0.004386253659
    16   -0.003113128163
    17   -0.007317197052
    18   -0.023970037055
    19    0.181065732276
    20    0.185220915922
    21    0.342347095081
    22   -0.264997310012
    23   -0.270056226781
    24   -0.489246245727
    25   -0.000292747989
    26   -0.000332774797
    27   -0.000328537609
    28    0.005828373940
    29    0.003080317304
    30    0.003142540747
    31   -0.000668382411
    32   -0.001597958053
    33   -0.004783028405
    34   -0.168559634417
    35   -0.096673485855
    36    0.077254484443
    37    0.235680394683
    38    0.134135059589
    39   -0.111397874830
    40    0.000139022104
    41   -0.000335381282
    42   -0.000006121386
    43    0.001157535562
    44   -0.001198267748
    45   -0.002273144667
    46    0.000061603368
    47    0.000096561888
    48    0.001055979969
    49   -0.245978633957
    50   -0.174289889001
    51   -0.072243626649
    52    0.346345255026
    53    0.245174560133
    54    0.102668140481
    55   -0.000337732264
    56    0.000237158979
    57    0.000124906057
    58   -0.001175869992
    59   -0.002426153948
    60   -0.003594096155
Sym=        a    
Ene=      0.18647
Spin=       Alpha
Occup=    0.00000
     1   -0.000698251631
     2   -0.001656181075
     3   -0.005236194185
     4    0.006935282016
     5   -0.046609580176
     6    0.035910254614
     7   -0.007785303851
     8    0.067093170010
     9   -0.051437684426
    10   -0.000281115916
    11    0.000009424934
    12    0.000059188343
    13    0.000708659219
    14   -0.000625539257
    15   -0.000195359849
    16    0.000493536630
    17    0.001029315342
    18    0.005364316872
    19    0.262764958098
    20   -0.302725632626
    21   -0.035953240606
    22   -0.375010176620
    23    0.435215517487
    24    0.051344382913
    25   -0.000004860664
    26    0.000119386183
    27    0.000052507833
    28   -0.000638964478
    29   -0.004826026938
    30    0.004121815706
    31    0.000500710001
    32    0.001046504011
    33    0.005487834671
    34   -0.265815388353
    35    0.046638121235
    36    0.308303284282
    37    0.384598058263
    38   -0.067381447625
    39   -0.442843085441
    40    0.000273044113
    41    0.000099153326
    42   -0.000199649823
    43    0.005092413026
    44    0.000698357120
    45   -0.004456744352
    46   -0.000295845462
    47   -0.000419067507
    48   -0.005615836289
    49   -0.010629196384
    50    0.301560111228
    51   -0.309381003016
    52    0.017687158629
    53   -0.434065329585
    54    0.443902132917
    55    0.000036332539
    56   -0.000246755981
    57    0.000083339463
    58   -0.005070206468
    59    0.004858128241
    60   -0.000252353195
Sym=        a    
Ene=      0.18831
Spin=       Alpha
Occup=    0.00000
     1   -0.003666035815
     2   -0.008681908510
     3   -0.027727627373
     4    0.251776561462
     5   -0.348727213725
     6    0.077154480212
     7   -0.357073199491
     8    0.505014109211
     9   -0.106290776549
    10   -0.000226844680
    11   -0.000544438822
    12   -0.000346392399
    13    0.001107088077
    14   -0.005602373420
    15    0.003913106843
    16    0.000794284315
    17    0.001947233425
    18    0.005271623333
    19   -0.178107140600
    20    0.086946624023
    21   -0.085462238297
    22    0.262200585799
    23   -0.124450892273
    24    0.127293252749
    25    0.000066244239
    26   -0.000074983645
    27    0.000241666330
    28   -0.001740527802
    29    0.001496793030
    30   -0.003337471102
    31    0.002903366967
    32    0.006793941325
    33    0.023039206143
    34    0.166028442721
    35    0.349199452576
    36    0.160681550305
    37   -0.233595411457
    38   -0.504116100953
    39   -0.226879503293
    40    0.000081590228
    41    0.000678790499
    42    0.000137258620
    43    0.002531948845
    44    0.005396994098
    45    0.002502803131
    46   -0.000021321538
    47   -0.000015631106
    48   -0.000578335652
    49   -0.263453061857
    50   -0.092418231178
    51   -0.170779509994
    52    0.385533632907
    53    0.134330485462
    54    0.250417185524
    55    0.000068656070
    56   -0.000053682203
    57   -0.000026868648
    58   -0.003164171285
    59   -0.001498020393
    60   -0.004665196343
Sym=        a    
Ene=      0.28184
Spin=       Alpha
Occup=    0.00000
     1   -0.106850483536
     2   -0.254853005787
     3   -1.024045065691
     4   -0.188230909831
     5   -0.230178626357
     6   -0.119371600090
     7    0.515540485919
     8    0.696490477260
     9    0.193500698611
    10   -0.010661452415
    11   -0.007307686749
    12   -0.016232167258
    13    0.004765904829
    14   -0.012435933105
    15   -0.006694776852
    16    0.135622871124
    17    0.322227943186
    18    1.305561822410
    19   -0.222568648622
    20   -0.267577631003
    21    0.199980660820
    22    0.587252411904
    23    0.771943166631
    24   -0.448568781829
    25    0.014496377107
    26    0.011339873527
    27    0.017577360421
    28    0.000096546139
    29   -0.011691817596
    30   -0.005774714760
    31   -0.045724467252
    32   -0.109397384139
    33   -0.436873621780
    34   -0.013253493035
    35   -0.168646714815
    36    0.074354305901
    37    0.162248222607
    38    0.569954816055
    39   -0.194938355362
    40   -0.011077682710
    41    0.001329130034
    42   -0.004891531501