[Molden Format]
[Atoms] AU
   N     1    7      0.98265751     0.99683046     0.96848457
   N     2    7     -0.98265751    -0.98738183     0.98738183
   N     3    7     -0.98265751     0.97793320    -0.97793320
   N     4    7      0.98265751    -0.98738183    -0.97793320
[GTO]
    1  0
  s      5  0
  1712.84158530    -0.00539341
   257.64812677    -0.04022158
    58.45824585    -0.17931145
    16.19836791    -0.46376318
     5.00526008    -0.44171423
  s      1  0
     0.58731857     1.00000000
  s      1  0
     0.18764592     1.00000000
  p      3  0
    13.57147023    -0.04007240
     2.92573729    -0.21807045
     0.79927751    -0.51294466
  p      1  0
     0.21954348     1.00000000
  d      1  0
     1.00000000     1.00000000

    2  0
  s      5  0
  1712.84158530    -0.00539341
   257.64812677    -0.04022158
    58.45824585    -0.17931145
    16.19836791    -0.46376318
     5.00526008    -0.44171423
  s      1  0
     0.58731857     1.00000000
  s      1  0
     0.18764592     1.00000000
  p      3  0
    13.57147023    -0.04007240
     2.92573729    -0.21807045
     0.79927751    -0.51294466
  p      1  0
     0.21954348     1.00000000
  d      1  0
     1.00000000     1.00000000

    3  0
  s      5  0
  1712.84158530    -0.00539341
   257.64812677    -0.04022158
    58.45824585    -0.17931145
    16.19836791    -0.46376318
     5.00526008    -0.44171423
  s      1  0
     0.58731857     1.00000000
  s      1  0
     0.18764592     1.00000000
  p      3  0
    13.57147023    -0.04007240
     2.92573729    -0.21807045
     0.79927751    -0.51294466
  p      1  0
     0.21954348     1.00000000
  d      1  0
     1.00000000     1.00000000

    4  0
  s      5  0
  1712.84158530    -0.00539341
   257.64812677    -0.04022158
    58.45824585    -0.17931145
    16.19836791    -0.46376318
     5.00526008    -0.44171423
  s      1  0
     0.58731857     1.00000000
  s      1  0
     0.18764592     1.00000000
  p      3  0
    13.57147023    -0.04007240
     2.92573729    -0.21807045
     0.79927751    -0.51294466
  p      1  0
     0.21954348     1.00000000
  d      1  0
     1.00000000     1.00000000

[MO]
Sym=        a    
Ene=    -15.87745
Spin=       Alpha
Occup=    2.00000
     1    0.338409023686
     2    0.030230232037
     3    0.006727723242
     4   -0.001296366027
     5   -0.001244258772
     6   -0.001498968989
     7   -0.002231789712
     8   -0.000109390606
     9   -0.002428756320
    10   -0.011643067185
    11   -0.011719578430
    12   -0.011914559972
    13   -0.000029639531
    14   -0.000282208424
    15   -0.000336414622
    16    0.052253223226
    17    0.012976403833
    18    0.004898614982
    19    0.000259316721
    20    0.000291678807
    21   -0.000827345501
    22    0.000567944545
    23    0.002670443459
    24   -0.002858185683
    25   -0.004467187847
    26   -0.004357366139
    27   -0.005106044958
    28    0.000684316756
    29    0.000118744511
    30    0.000041311283
    31    0.918995239873
    32   -0.086021253156
    33   -0.003690972491
    34    0.000812588739
    35   -0.001176446617
    36    0.000617402713
    37   -0.002323233358
    38    0.002354927992
    39   -0.002531874628
    40    0.017167626667
    41    0.016653708760
    42    0.017433311329
    43    0.000205932634
    44    0.000674389268
    45   -0.000104939094
    46   -0.008627678300
    47   -0.006705891311
    48    0.002971990707
    49   -0.000328882508
    50   -0.000021716882
    51   -0.000259823610
    52   -0.002531287330
    53    0.002595056255
    54    0.000256906201
    55    0.001079126040
    56    0.001577596318
    57    0.001725082761
    58   -0.000057209257
    59   -0.000279407838
    60    0.000806192675
Sym=        a    
Ene=    -15.83229
Spin=       Alpha
Occup=    2.00000
     1    0.910683828924
     2   -0.092159236259
     3   -0.006476569247
     4   -0.000622779809
     5   -0.001169162615
     6   -0.000291353332
     7    0.004135055000
     8    0.002559793808
     9    0.004296795795
    10    0.019308913428
    11    0.018655145494
    12    0.019762001250
    13   -0.000522842759
    14    0.000726109186
    15    0.000002094568
    16   -0.146104988995
    17   -0.022279906853
    18   -0.000810714802
    19   -0.000196533280
    20   -0.000712519604
    21    0.000931477359
    22    0.002478463059
    23    0.000917062443
    24    0.001337456950
    25    0.006833607524
    26    0.007434530096
    27    0.007570217993
    28    0.000084841887
    29   -0.000261611227
    30   -0.000931782198
    31   -0.296169235434
    32    0.090868164199
    33    0.009634029055
    34    0.000605361582
    35   -0.000700780920
    36    0.000948147691
    37    0.004064333069
    38   -0.001868982518
    39    0.004226527631
    40   -0.023700345085
    41   -0.023991263538
    42   -0.024170427307
    43    0.000078762894
    44   -0.000317534427
    45    0.000601938523
    46    0.032715408644
    47    0.004558901815
    48    0.001829107390
    49    0.000008023395
    50   -0.000135966463
    51    0.000725183384
    52    0.001269757817
    53    0.000870193213
    54    0.002597911281
    55   -0.001616618323
    56   -0.001286539634
    57   -0.002358040812
    58   -0.000742127159
    59    0.000450149235
    60   -0.000115087014
Sym=        a    
Ene=    -15.78975
Spin=       Alpha
Occup=    2.00000
     1    0.103781699987
     2   -0.035568266199
     3   -0.000145781955
     4    0.000325596516
     5    0.000080622849
     6    0.000101936466
     7   -0.000824601610
     8   -0.001654008730
     9    0.000591640204
    10    0.009147785032
    11    0.008889540720
    12    0.008717058015
    13    0.000668787411
    14    0.000519308448
    15    0.000213266092
    16    0.969690231195
    17   -0.042507868753
    18   -0.000055922858
    19    0.001923986335
    20    0.001718407295
    21   -0.001467839595
    22   -0.001170987838
    23   -0.001979548398
    24    0.002446713275
    25    0.004046068863
    26    0.004290011702
    27    0.004649887961
    28   -0.000585896094
    29    0.000197730319
    30   -0.000097254477
    31   -0.078186377145
    32    0.039181654654
    33    0.006677000073
    34    0.000807402880
    35   -0.000246421868
    36    0.000561405077
    37    0.001843751982
    38   -0.002823341197
    39    0.003285788367
    40   -0.011512577082
    41   -0.010680383713
    42   -0.011071003751
    43   -0.000032350246
    44   -0.000406412256
    45   -0.000491695147
    46    0.122709364265
    47   -0.002755923540
    48    0.002920060312
    49   -0.000015237026
    50    0.000553516037
    51    0.000527243330
    52   -0.001174791995
    53    0.000154599163
    54    0.002427642242
    55   -0.000125967112
    56   -0.000947725110
    57   -0.000744486868
    58   -0.000365879070
    59   -0.000547505672
    60   -0.000330748100
Sym=        a    
Ene=    -15.78216
Spin=       Alpha
Occup=    2.00000
     1   -0.038000427368
     2    0.010612344275
     3    0.003315010799
     4   -0.000493424122
     5    0.000047015808
     6   -0.000061195102
     7   -0.000620745018
     8   -0.001832743781
     9   -0.002281749876
    10   -0.003620675862
    11   -0.002770716992
    12   -0.002912016809
    13   -0.000053397588
    14   -0.000176985525
    15    0.000716005632
    16   -0.115046735810
    17    0.006084186504
    18    0.002836301548
    19   -0.000316756845
    20    0.000217242312
    21    0.000131044100
    22    0.001941394821
    23    0.000731782440
    24   -0.002415237666
    25   -0.000864804022
    26   -0.001695155169
    27   -0.001094493567
    28    0.000138377784
    29   -0.000776161345
    30    0.000114622792
    31    0.024018958343
    32   -0.016971899613
    33    0.000767509219
    34   -0.000284625288
    35    0.000184536454
    36    0.000145750730
    37    0.001409704694
    38   -0.001391398619
    39   -0.000269891387
    40    0.004609648549
    41    0.004472585181
    42    0.003886931099
    43   -0.000786813323
    44    0.000172141608
    45   -0.000017948292
    46    0.982457722260
    47   -0.031349937914
    48    0.000246353173
    49   -0.001989790259
    50    0.001905104439
    51    0.001793257259
    52    0.001913385513
    53   -0.001901551644
    54   -0.002364640930
    55    0.001015262768
    56    0.001141957500
    57    0.001255027680
    58    0.000520350976
    59    0.000404885701
    60   -0.000259246342
Sym=        a    
Ene=     -1.68561
Spin=       Alpha
Occup=    2.00000
     1    0.122846965261
     2    0.242415834433
     3    0.062070176395
     4    0.082569165695
     5    0.082145554187
     6    0.083003055790
     7   -0.019033643789
     8   -0.019514740111
     9   -0.018923437890
    10    0.008504011115
    11    0.008471709752
    12    0.008443999901
    13    0.007502799379
    14    0.007663469390
    15    0.007549006810
    16    0.123850601491
    17    0.246162357829
    18    0.061995365593
    19   -0.079456887648
    20   -0.079717745929
    21    0.081606287417
    22    0.019120115641
    23    0.018800581777
    24   -0.019197569963
    25    0.007848804828
    26    0.008023787156
    27    0.008150798910
    28    0.007321244303
    29   -0.007512060213
    30   -0.007574638697
    31    0.123156205125
    32    0.243048377751
    33    0.062616146932
    34   -0.085039893038
    35    0.083148895089
    36   -0.085045341088
    37    0.019438128291
    38   -0.019370367319
    39    0.019406850891
    40    0.008297491346
    41    0.008047162758
    42    0.008257697538
    43   -0.007520780738
    44    0.007790823363
    45   -0.007593625261
    46    0.125132812748
    47    0.249191371388
    48    0.062902422088
    49    0.080375062613
    50   -0.080521493900
    51   -0.080340035295
    52   -0.019289133826
    53    0.019147510498
    54    0.019428667177
    55    0.007865542140
    56    0.007973664312
    57    0.007763832297
    58   -0.007465379040
    59   -0.007477356050
    60    0.007474571056
Sym=        a    
Ene=     -1.05934
Spin=       Alpha
Occup=    2.00000
     1   -0.139283269378
     2   -0.314014537085
     3   -0.094707002817
     4    0.040183516075
     5    0.061775331718
     6   -0.141523565372
     7   -0.044501095449
     8   -0.053960384138
     9    0.042962724423
    10   -0.005085534539
    11   -0.002789041399
    12   -0.024960124548
    13    0.009523686986
    14   -0.005693132940
    15   -0.004006559417
    16    0.206713444861
    17    0.467336288615
    18    0.141875488151
    19    0.007093352494
    20    0.024836558088
    21    0.069785064980
    22   -0.038441442448
    23   -0.047739586861
    24    0.002217091430
    25    0.013998898699
    26    0.012080908351
    27    0.022461665680
    28   -0.004586103861
    29   -0.002476074020
    30   -0.001226780076
    31   -0.043124336696
    32   -0.095959268568
    33   -0.029239535582
    34    0.162394218667
    35    0.123802108535
    36   -0.024195785407
    37   -0.068566415807
    38   -0.066338150646
    39    0.019908707183
    40   -0.021202848272
    41    0.009828442984
    42   -0.000697096202
    43    0.001960302555
    44   -0.009582899050
    45   -0.011648920472
    46   -0.021299566395
    47   -0.048257649606
    48   -0.014029048100
    49    0.114804444349
    50    0.158875990230
    51   -0.040363499798
    52   -0.060391443385
    53   -0.074459191802
    54    0.023833186876
    55    0.011122979692
    56   -0.019162888089
    57    0.002943345687
    58    0.003033985373
    59   -0.011688248170
    60   -0.008676084822
Sym=        a    
Ene=     -1.05800
Spin=       Alpha
Occup=    2.00000
     1   -0.076629176355
     2   -0.171216357086
     3   -0.052476363263
     4   -0.162721352300
     5    0.089323823476
     6    0.051460618727
     7    0.064378809080
     8   -0.056367902264
     9   -0.039244353394
    10   -0.023815024840
    11    0.003779501032
    12   -0.000288956413
    13   -0.004373944844
    14   -0.007265296667
    15    0.011424615559
    16   -0.049589361737
    17   -0.111587264099
    18   -0.033761157679
    19   -0.083063627618
    20    0.162723116509
    21    0.069673294124
    22    0.049271681585
    23   -0.071419738938
    24   -0.043419063053
    25    0.005318564245
    26   -0.021697129032
    27    0.004073202631
    28   -0.005410548633
    29   -0.011802192062
    30    0.006612229197
    31   -0.090600710134
    32   -0.204112773080
    33   -0.061441340964
    34   -0.054592929589
    35    0.081005242932
    36    0.163823393205
    37    0.042432720271
    38   -0.054131671083
    39   -0.061291489482
    40    0.000266898103
    41    0.002875097008
    42   -0.023614700460
    43   -0.011361247407
    44   -0.006682739599
    45    0.004603606174
    46    0.219331278372
    47    0.496953351482
    48    0.149610980530
    49    0.015484315670
    50    0.006493973289
    51   -0.026276135709
    52    0.030114689860
    53   -0.041209309187
    54   -0.024958877334
    55    0.017397487271
    56    0.015021757936
    57    0.018563152241
    58    0.001538365389
    59   -0.001007046775
    60   -0.000632531810
Sym=        a    
Ene=     -0.98245
Spin=       Alpha
Occup=    2.00000
     1   -0.086453736057
     2   -0.095319140491
     3   -0.089929227240
     4    0.017486980546
     5   -0.151391348637
     6    0.083177504624
     7   -0.051785756223
     8    0.042681435214
     9   -0.088885285254
    10   -0.059648609663
    11   -0.075895593792
    12   -0.053154501765
    13   -0.006278581694
    14    0.006591633915
    15   -0.002698318672
    16   -0.034071230777
    17   -0.037667743117
    18   -0.035893764573
    19    0.165664095920
    20    0.000873991283
    21    0.148248778109
    22   -0.077824555497
    23    0.015599538759
    24   -0.100744930191
    25   -0.040378382083
    26   -0.024543712481
    27   -0.009599935752
    28   -0.009048521336
    29    0.000835399115
    30   -0.008632446335
    31    0.110187790142
    32    0.118421080481
    33    0.113674784895
    34   -0.021047705175
    35    0.107300403310
    36    0.047518841618
    37   -0.044140618245
    38   -0.004741130426
    39   -0.081845912176
    40    0.081210858094
    41    0.089407108718
    42    0.074530846937
    43   -0.005277596434
    44   -0.003080762811
    45   -0.001647979462
    46    0.007554306503
    47    0.007181449542
    48    0.007660897340
    49    0.135596660156
    50   -0.049814791757
    51    0.181200554684
    52   -0.072949035427
    53    0.024267797170
    54   -0.107244312809
    55    0.019288064486
    56    0.010933009200
    57   -0.011488651648
    58   -0.010387232727
    59    0.002613022190
    60   -0.007450183445
Sym=        a    
Ene=     -0.71266
Spin=       Alpha
Occup=    2.00000
     1    0.065527372030
     2    0.128366657867
     3    0.186043737249
     4   -0.168064975114
     5   -0.173433467356
     6   -0.166289248847
     7    0.078875974701
     8    0.081652452389
     9    0.078340082827
    10    0.000274373971
    11   -0.000230952241
    12    0.000496010971
    13   -0.012300691197
    14   -0.011660088275
    15   -0.012116650564
    16    0.064393957514
    17    0.128719787655
    18    0.182923039164
    19    0.164356567878
    20    0.161888377603
    21   -0.164565175493
    22   -0.077265598882
    23   -0.075338150072
    24    0.077497933785
    25   -0.000569449287
    26   -0.000431775165
    27   -0.000713209181
    28   -0.011774611285
    29    0.011878907054
    30    0.011703461628
    31    0.066732812930
    32    0.129079925410
    33    0.188782814272
    34    0.174587674007
    35   -0.175398845579
    36    0.173553820688
    37   -0.082173395791
    38    0.082620354188
    39   -0.082134243631
    40    0.000546269480
    41    0.000601958698
    42    0.000628390951
    43    0.012327540165
    44   -0.012145274349
    45    0.012255551924
    46    0.064212290125
    47    0.128633505945
    48    0.182846842533
    49   -0.164184412142
    50    0.163073938348
    51    0.164705344844
    52    0.076893634905
    53   -0.075791159571
    54   -0.077851123301
    55   -0.000731201734
    56   -0.000679920433
    57   -0.000736030279
    58    0.011749280833
    59    0.011849615365
    60   -0.011788554466
Sym=        a    
Ene=     -0.59593
Spin=       Alpha
Occup=    2.00000
     1   -0.051101550667
     2   -0.120662908427
     3   -0.062700605509
     4   -0.050033787465
     5    0.045999499870
     6    0.269602810714
     7   -0.007592429648
     8   -0.050957165916
     9   -0.158863404715
    10   -0.014925550569
    11   -0.004771255478
    12    0.015564053606
    13   -0.002532340589
    14    0.003283281957
    15    0.004645931710
    16    0.116486913048
    17    0.277092102780
    18    0.139902772055
    19    0.115396076248
    20    0.250825763896
    21   -0.221905046771
    22   -0.122106783438
    23   -0.193503886801
    24    0.177533581922
    25    0.010964511896
    26   -0.000081452186
    27    0.002193026431
    28   -0.003208391774
    29    0.002125919142
    30    0.006364324307
    31   -0.000343807207
    32    0.001520019641
    33   -0.001896252989
    34   -0.229152113003
    35   -0.102435173033
    36    0.124188850063
    37    0.111105363999
    38    0.048677992129
    39   -0.058505567116
    40    0.019096833417
    41   -0.009863933810
    42   -0.012475896060
    43   -0.002894634829
    44    0.002817885137
    45    0.005964156224
    46   -0.063878583291
    47   -0.152236723242
    48   -0.076110925294
    49   -0.011834688471
    50   -0.266057121544
    51   -0.061709910282
    52   -0.033146030456
    53    0.166129622720
    54    0.067044565420
    55   -0.013873033456
    56    0.013342201782
    57   -0.006108151440
    58   -0.003182233153
    59    0.001561834000
    60    0.004276385056
Sym=        a    
Ene=     -0.59456
Spin=       Alpha
Occup=    2.00000
     1   -0.072174202607
     2   -0.165572707915
     3   -0.091002717532
     4    0.283079935381
     5   -0.043909502496
     6    0.136652636147
     7   -0.181899996297
     8   -0.019432312495
     9   -0.111300328522
    10    0.009767048178
    11   -0.017891681859
    12   -0.003901756343
    13    0.001488587547
    14    0.007453422793
    15   -0.001857961497
    16    0.024690464491
    17    0.060476881783
    18    0.029327383589
    19    0.117887414942
    20   -0.132648577826
    21   -0.148680138832
    22   -0.070790120758
    23    0.046127138695
    24    0.084969665552
    25   -0.006801691156
    26    0.018517569421
    27   -0.010199697295
    28    0.000837828562
    29    0.004357501343
    30   -0.000412875438
    31   -0.054254714190
    32   -0.126101680194
    33   -0.067923777803
    34   -0.113685938491
    35   -0.103708411736
    36   -0.270638605759
    37    0.087223633604
    38    0.020506200061
    39    0.162593468190
    40   -0.000315001012
    41   -0.017618345660
    42    0.013914547160
    43    0.003164709171
    44    0.007536945654
    45   -0.000633143878
    46    0.105309963194
    47    0.252301317376
    48    0.125593972475
    49   -0.237902572548
    50    0.100646566968
    51    0.200785936374
    52    0.176860528865
    53   -0.116425899785
    54   -0.158066626097
    55   -0.002522559772
    56    0.012629013782
    57    0.000746248085
    58    0.003735398887
    59    0.004535954425
    60   -0.002652280615
Sym=        a    
Ene=     -0.56891
Spin=       Alpha
Occup=    2.00000
     1   -0.007279806788
     2   -0.019985023741
     3   -0.006830933903
     4   -0.178557817779
     5    0.253594373301
     6   -0.041234243981
     7    0.112163692575
     8   -0.165411266251
     9    0.025854188060
    10   -0.003744010242
    11    0.005635453542
    12   -0.000060816219
    13    0.003875518138
    14   -0.014667312137
    15    0.011768733346
    16    0.007266152393
    17    0.017277292635
    18    0.009879801123
    19    0.217976411820
    20   -0.263147130301
    21   -0.088152380211
    22   -0.141949224956
    23    0.165301046537
    24    0.058389410851
    25   -0.005103117687
    26    0.008464298375
    27   -0.002039005804
    28    0.003658477789
    29    0.015911058002
    30   -0.011565746516
    31   -0.005988243359
    32   -0.013373798607
    33   -0.007317906793
    34    0.175428920788
    35    0.255884594346
    36    0.042008192996
    37   -0.108700070675
    38   -0.165314801911
    39   -0.024363986208
    40   -0.004970768561
    41    0.003839840210
    42   -0.001567147128
    43   -0.004065798147
    44   -0.014683989154
    45   -0.011850361436
    46    0.006120309984
    47    0.014910836461
    48    0.008084034458
    49   -0.216599673540
    50   -0.266327607660
    51    0.085682320330
    52    0.141439760329
    53    0.168293296134
    54   -0.055958259811
    55   -0.005517213000
    56    0.008328220399
    57   -0.002468408541
    58   -0.003705181764
    59    0.015858355472
    60    0.011581114657
Sym=        a    
Ene=     -0.56684
Spin=       Alpha
Occup=    2.00000
     1   -0.054126027602
     2   -0.056613487028
     3   -0.110408031920
     4    0.087033474589
     5    0.279220646515
     6    0.083472481355
     7   -0.109291398605
     8   -0.192249492194
     9   -0.120723070809
    10   -0.042424753507
    11   -0.025034007924
    12   -0.047267956870
    13    0.003597111130
    14   -0.001421739848
    15    0.005066965727
    16   -0.021012287798
    17   -0.023028900051
    18   -0.042201631846
    19   -0.189657823560
    20   -0.045882285560
    21   -0.061820208126
    22    0.103182593556
    23    0.048832829331
    24   -0.012535296624
    25    0.000306800587
    26   -0.015739548544
    27   -0.029470495189
    28    0.003798660031
    29   -0.001597165313
    30    0.002250119669
    31    0.069645958860
    32    0.067289300325
    33    0.145278094618
    34    0.218560783753
    35   -0.277800436279
    36    0.094485312461
    37   -0.198471469461
    38    0.215064832829
    39   -0.134698122781
    40    0.050063479142
    41    0.042362326942
    42    0.057902843447
    43    0.007127722398
    44   -0.000418417807
    45    0.001763508479
    46    0.002551010018
    47   -0.001341163791
    48    0.006723236305
    49   -0.165064284003
    50    0.058127021012
    51   -0.205042241368
    52    0.080125206068
    53   -0.030179605605
    54    0.088000120800
    55   -0.010216929149
    56   -0.001224251976
    57    0.022596237854
    58    0.007369093101
    59   -0.001780910565
    60    0.005778954556
Sym=        a    
Ene=     -0.56253
Spin=       Alpha
Occup=    2.00000
     1    0.008338056048
     2    0.011751778707
     3    0.014369452047
     4   -0.213771778497
     5   -0.108877800985
     6    0.261393699186
     7    0.143497404819
     8    0.073084213701
     9   -0.158527425124
    10   -0.000258941667
    11    0.001560782159
    12    0.012802757215
    13   -0.016188332965
    14    0.004465992088
    15    0.010468626298
    16    0.003958190340
    17    0.007012675987
    18    0.005478275318
    19    0.208948850353
    20    0.095622859123
    21    0.274760757853
    22   -0.135461039340
    23   -0.064353229734
    24   -0.172392815852
    25   -0.004321901108
    26   -0.001064327966
    27    0.010686942727
    28   -0.016256004680
    29   -0.004116502445
    30   -0.010989142950
    31   -0.006750985152
    32   -0.002759264056
    33   -0.017024205519
    34    0.164319422003
    35   -0.042058922311
    36   -0.270847513474
    37   -0.097444066857
    38    0.022538615491
    39    0.181246636911
    40   -0.010841193876
    41   -0.006922984108
    42   -0.001420107973
    43    0.014675922529
    44    0.004210345842
    45   -0.011008278216
    46   -0.004809791174
    47   -0.010429455833
    48   -0.007250404351
    49   -0.157593558636
    50    0.058562639469
    51   -0.245611046444
    52    0.105430392220
    53   -0.037763666511
    54    0.168206490953
    55   -0.003409664788
    56   -0.001697068607
    57    0.003209979563
    58    0.014485393314
    59   -0.004383718139
    60    0.010346033174
Sym=        a    
Ene=      0.16828
Spin=       Alpha
Occup=    0.00000
     1    0.002409619965
     2    0.008168832026
     3   -0.001272890760
     4    0.276681606531
     5    0.075712924099
     6   -0.337994332802
     7   -0.374972455120
     8   -0.099183910989
     9    0.465995545846
    10    0.001675640321
    11    0.000987992414
    12   -0.000032560409
    13   -0.005704118748
    14    0.001322758838
    15    0.004686967438
    16   -0.002764993185
    17   -0.009818736629
    18    0.002058962813
    19    0.090993110409
    20    0.264495960278
    21    0.333475943418
    22   -0.122271792901
    23   -0.366019815881
    24   -0.466653434281
    25   -0.000488241535
    26   -0.000606400591
    27   -0.000101434239
    28    0.005757089251
    29    0.004354794240
    30    0.001612998509
    31    0.000341236742
    32    0.001794400301
    33   -0.000227154817
    34   -0.081380847493
    35   -0.067817242460
    36    0.015044886866
    37    0.108643534422
    38    0.090161299194
    39   -0.018912254030
    40   -0.000172903284
    41   -0.000862791609
    42   -0.000336278163
    43    0.000173881679
    44   -0.000604434438
    45   -0.000735893882
    46    0.000039098592
    47   -0.000055326385
    48   -0.000253553023
    49   -0.266405124345
    50   -0.254983521546
    51   -0.012492889476
    52    0.372194073102
    53    0.357019485086
    54    0.017479405462
    55   -0.000568946194
    56    0.000392051622
    57    0.000065743020
    58   -0.000268025107
    59   -0.003573879574
    60   -0.003795838059
Sym=        a    
Ene=      0.17035
Spin=       Alpha
Occup=    0.00000
     1   -0.000534152074
     2   -0.001917507334
     3    0.000297331078
     4   -0.047308756917
     5   -0.018404623323
     6    0.062807682954
     7    0.062831648403
     8    0.024304662306
     9   -0.085377511834
    10    0.000100239133
    11   -0.000289685534
    12   -0.000215506702
    13    0.001009428595
    14   -0.000457492491
    15   -0.000603985147
    16    0.000451131441
    17    0.002299199399
    18    0.000096681218
    19   -0.321318325275
    20    0.255242356728
    21   -0.064362672946
    22    0.447016783721
    23   -0.357725368436
    24    0.089985629536
    25    0.000241622969
    26    0.000028034760
    27    0.000084585355
    28   -0.001048350136
    29    0.003919898474
    30   -0.004944437487
    31   -0.000110470945
    32   -0.000722057587
    33    0.000302373212
    34    0.322433552729
    35    0.016557671063
    36   -0.305605827923
    37   -0.436115145826
    38   -0.022390397554
    39    0.413321435466
    40   -0.001129042162
    41    0.000035157063
    42    0.001082512706
    43   -0.004911676399
    44    0.000046317801
    45    0.005038151494
    46    0.000150724694
    47    0.000136316365
    48   -0.000784737417
    49    0.048105141569
    50   -0.256987717759
    51    0.301894778342
    52   -0.066695480528
    53    0.360797316159
    54   -0.422172216368
    55    0.000188673038
    56    0.000230479853
    57   -0.000301561294
    58    0.004846475740
    59   -0.004288390834
    60    0.000730289612
Sym=        a    
Ene=      0.17287
Spin=       Alpha
Occup=    0.00000
     1   -0.001918315322
     2   -0.006466489731
     3    0.000767261299
     4    0.236949040184
     5   -0.364008032408
     6    0.113824090606
     7   -0.331046023963
     8    0.495318130027
     9   -0.161123066504
    10   -0.001157489260
    11   -0.001981865351
    12   -0.001419354977
    13    0.001694975454
    14   -0.005374505121
    15    0.003358914313
    16    0.001556947809
    17    0.006335694649
    18   -0.000916843712
    19   -0.158391487913
    20    0.033524697410
    21   -0.116405433911
    22    0.219326516880
    23   -0.048933734130
    24    0.162788325658
    25   -0.000085174996
    26   -0.000264099611
    27    0.000094706722
    28   -0.002357690708
    29    0.000574158124
    30   -0.002947749121
    31    0.000646525547
    32    0.001279064071
    33   -0.000230031439
    34    0.150338163972
    35    0.365158773004
    36    0.199318823017
    37   -0.207508744877
    38   -0.491639932985
    39   -0.273929934694
    40    0.001064641773
    41    0.002660099727
    42    0.000917650792
    43    0.003066770368
    44    0.005111529252
    45    0.001831699154
    46   -0.000253003367
    47   -0.000985414333
    48    0.000399967606
    49   -0.244425412432
    50   -0.038947843799
    51   -0.203796750969
    52    0.342973654773
    53    0.055520762391
    54    0.285179744449
    55    0.000174132542
    56   -0.000184516539
    57    0.000148884121
    58   -0.003651901462
    59   -0.000720859832
    60   -0.004434314884
Sym=        a    
Ene=      0.29966
Spin=       Alpha
Occup=    0.00000
     1    0.126955512007
     2    0.499057740655
     3   -0.085718297040
     4    0.211561105207
     5    0.284501458189
     6    0.161780282092
     7   -0.122157499086
     8   -0.251213997831
     9   -0.032124025171
    10    0.031087281776
    11    0.017248525423
    12    0.041336481888
    13   -0.015715764010
    14    0.014583212257
    15   -0.001554188517
    16   -0.139239368653
    17   -0.547788730857
    18    0.107610287984
    19    0.222895391500
    20    0.296638687320
    21   -0.196720822845
    22   -0.133909172704
    23   -0.265166555011
    24    0.076020881372
    25   -0.035308519660
    26   -0.022035673839
    27   -0.043191941136
    28    0.013697045507
    29    0.013164625458
    30   -0.003598894305
    31    0.059401032017
    32    0.232869200865
    33   -0.036119828719
    34   -0.017304115320
    35    0.211092302271
    36   -0.084184909090
    37   -0.086809630452
    38   -0.243654912585
    39    0.025653186522
    40    0.028762911578
    41   -0.003552450220
    42    0.017538880794