 argument  1 = N4.nw
                                         
                                         


              Northwest Computational Chemistry Package (NWChem) 6.6
              ------------------------------------------------------


                    Environmental Molecular Sciences Laboratory
                       Pacific Northwest National Laboratory
                                Richland, WA 99352

                              Copyright (c) 1994-2015
                       Pacific Northwest National Laboratory
                            Battelle Memorial Institute

             NWChem is an open-source computational chemistry package
                        distributed under the terms of the
                      Educational Community License (ECL) 2.0
             A copy of the license is included with this distribution
                              in the LICENSE.TXT file

                                  ACKNOWLEDGMENT
                                  --------------

            This software and its documentation were developed at the
            EMSL at Pacific Northwest National Laboratory, a multiprogram
            national laboratory, operated for the U.S. Department of Energy
            by Battelle under Contract Number DE-AC05-76RL01830. Support
            for this work was provided by the Department of Energy Office
            of Biological and Environmental Research, Office of Basic
            Energy Sciences, and the Office of Advanced Scientific Computing.


           Job information
           ---------------

    hostname        = vladimir-Bars
    program         = /home/vladimir/bin/nwchem-6.6_molden/bin/LINUX64/nwchem
    date            = Mon May 16 12:34:30 2016

    compiled        = Пт._мая_13_17:47:57_2016
    source          = /home/vladimir/bin/nwchem-6.6_molden
    nwchem branch   = 6.6
    nwchem revision = 27746
    ga revision     = 10594
    input           = N4.nw
    prefix          = N4.
    data base       = ./N4.db
    status          = startup
    nproc           =        1
    time left       =     -1s



           Memory information
           ------------------

    heap     =   13107194 doubles =    100.0 Mbytes
    stack    =   13107199 doubles =    100.0 Mbytes
    global   =   26214400 doubles =    200.0 Mbytes (distinct from heap & stack)
    total    =   52428793 doubles =    400.0 Mbytes
    verify   = yes
    hardfail = no 


           Directory information
           ---------------------

  0 permanent = .
  0 scratch   = .




                                NWChem Input Module
                                -------------------


                              test HF/def2-SVP energy
                              -----------------------

 Scaling coordinates for geometry "geometry" by  1.889725989
 (inverse scale =  0.529177249)

 Turning off AUTOSYM since
 SYMMETRY directive was detected!


          ------
          auto-z
          ------


                             Geometry "geometry" -> ""
                             -------------------------

 Output coordinates in angstroms (scale by  1.889725989 to convert to a.u.)

  No.       Tag          Charge          X              Y              Z
 ---- ---------------- ---------- -------------- -------------- --------------
    1 N                    7.0000     0.52000000     0.52750000     0.51250000
    2 N                    7.0000    -0.52000000    -0.52250000     0.52250000
    3 N                    7.0000    -0.52000000     0.51750000    -0.51750000
    4 N                    7.0000     0.52000000    -0.52250000    -0.51750000

      Atomic Mass 
      ----------- 

      N                 14.003070


 Effective nuclear repulsion energy (a.u.)     105.7779480979

            Nuclear Dipole moment (a.u.) 
            ----------------------------
        X                 Y               Z
 ---------------- ---------------- ----------------
     0.0000000000     0.0000000000     0.0000000000



                                Z-matrix (autoz)
                                -------- 

 Units are Angstrom for bonds and degrees for angles

      Type          Name      I     J     K     L     M      Value
      ----------- --------  ----- ----- ----- ----- ----- ----------
    1 Stretch                  1     2                       1.47790
    2 Stretch                  1     3                       1.46376
    3 Stretch                  1     4                       1.47085
    4 Stretch                  2     3                       1.47078
    5 Stretch                  2     4                       1.47078
    6 Stretch                  3     4                       1.47078
    7 Bend                     1     2     3                59.52518
    8 Bend                     1     2     4                59.84274
    9 Bend                     1     3     2                60.47941
   10 Bend                     1     3     4                60.16083
   11 Bend                     1     4     2                60.31908
   12 Bend                     1     4     3                59.68296
   13 Bend                     2     1     3                59.99541
   14 Bend                     2     1     4                59.83818
   15 Bend                     2     3     4                60.00000
   16 Bend                     2     4     3                60.00000
   17 Bend                     3     1     4                60.15621
   18 Bend                     3     2     4                60.00000
   19 Torsion                  1     2     3     4          70.52878
   20 Torsion                  1     2     4     3         -70.01104
   21 Torsion                  1     3     2     4         -70.52878
   22 Torsion                  1     3     4     2          71.04985
   23 Torsion                  1     4     2     3          70.01104
   24 Torsion                  1     4     3     2         -71.04985
   25 Torsion                  2     1     3     4         -70.26888
   26 Torsion                  2     1     4     3          70.52462
   27 Torsion                  2     3     1     4          70.26888
   28 Torsion                  2     4     1     3         -70.52462
   29 Torsion                  3     1     2     4          70.78827
   30 Torsion                  3     2     1     4         -70.78827


            XYZ format geometry
            -------------------
     4
 geometry
 N                     0.52000000     0.52750000     0.51250000
 N                    -0.52000000    -0.52250000     0.52250000
 N                    -0.52000000     0.51750000    -0.51750000
 N                     0.52000000    -0.52250000    -0.51750000

 ==============================================================================
                                internuclear distances
 ------------------------------------------------------------------------------
       center one      |      center two      | atomic units |  angstroms
 ------------------------------------------------------------------------------
    2 N                |   1 N                |     2.79283  |     1.47790
    3 N                |   1 N                |     2.76611  |     1.46376
    3 N                |   2 N                |     2.77938  |     1.47078
    4 N                |   1 N                |     2.77950  |     1.47085
    4 N                |   2 N                |     2.77938  |     1.47078
    4 N                |   3 N                |     2.77938  |     1.47078
 ------------------------------------------------------------------------------
                         number of included internuclear distances:          6
 ==============================================================================



 ==============================================================================
                                 internuclear angles
 ------------------------------------------------------------------------------
        center 1       |       center 2       |       center 3       |  degrees
 ------------------------------------------------------------------------------
    1 N                |   3 N                |   2 N                |    60.48
    1 N                |   4 N                |   2 N                |    60.32
    1 N                |   3 N                |   4 N                |    60.16
    2 N                |   3 N                |   1 N                |    60.48
    2 N                |   4 N                |   1 N                |    60.32
    2 N                |   3 N                |   4 N                |    60.00
    1 N                |   3 N                |   2 N                |    60.48
    1 N                |   3 N                |   4 N                |    60.16
    3 N                |   2 N                |   4 N                |    60.00
    1 N                |   4 N                |   2 N                |    60.32
    4 N                |   3 N                |   1 N                |    60.16
    4 N                |   2 N                |   3 N                |    60.00
 ------------------------------------------------------------------------------
                            number of included internuclear angles:         12
 ==============================================================================



  library name resolved from: environment
  library file name is: </home/vladimir/bin/nwchem-6.6/src/basis/libraries/>
  
                      Basis "ao basis" -> "" (cartesian)
                      -----
  N (Nitrogen)
  ------------
            Exponent  Coefficients 
       -------------- ---------------------------------------------------------
  1 S  1.71284159E+03 -0.005393
  1 S  2.57648127E+02 -0.040222
  1 S  5.84582459E+01 -0.179311
  1 S  1.61983679E+01 -0.463763
  1 S  5.00526008E+00 -0.441714

  2 S  5.87318566E-01  1.000000

  3 S  1.87645923E-01  1.000000

  4 P  1.35714702E+01 -0.040072
  4 P  2.92573729E+00 -0.218070
  4 P  7.99277508E-01 -0.512945

  5 P  2.19543480E-01  1.000000

  6 D  1.00000000E+00  1.000000



 Summary of "ao basis" -> "" (cartesian)
 ------------------------------------------------------------------------------
       Tag                 Description            Shells   Functions and Types
 ---------------- ------------------------------  ------  ---------------------
 N                          def2-SVP                 6       15   3s2p1d


                                 NWChem SCF Module
                                 -----------------


                              test HF/def2-SVP energy



  ao basis        = "ao basis"
  functions       =    60
  atoms           =     4
  closed shells   =    14
  open shells     =     0
  charge          =   0.00
  wavefunction    = RHF 
  input vectors   = atomic
  output vectors  = ./N4.movecs
  use symmetry    = F
  symmetry adapt  = F


 Summary of "ao basis" -> "ao basis" (cartesian)
 ------------------------------------------------------------------------------
       Tag                 Description            Shells   Functions and Types
 ---------------- ------------------------------  ------  ---------------------
 N                          def2-SVP                 6       15   3s2p1d



 Forming initial guess at       5.2s


 Forcing the number of linearly dependent vectors to be  4

 !! The overlap matrix has   4 vectors deemed linearly dependent with
    eigenvalues:
 7.09D-03 7.19D-03 7.28D-03 4.61D-02


      Superposition of Atomic Density Guess
      -------------------------------------

 Sum of atomic energies:        -216.97672637

      Non-variational initial energy
      ------------------------------

 Total energy =    -218.428247
 1-e energy   =    -505.729941
 2-e energy   =     181.523746
 HOMO         =      -0.341675
 LUMO         =       0.130312


 Starting SCF solution at       5.5s



 ----------------------------------------------
         Quadratically convergent ROHF

 Convergence threshold     :          1.000E-07
 Maximum no. of iterations :           30
 Final Fock-matrix accuracy:          1.000E-10
 ----------------------------------------------


 Integral file          = ./N4.aoints.0
 Record size in doubles =  65536        No. of integs per rec  =  43688
 Max. records in memory =     54        Max. records in file   = 745097
 No. of bits per label  =      8        No. of bits per value  =     64


 #quartets = 4.489D+04 #integrals = 1.593D+06 #direct =  0.0% #cached =100.0%


              iter       energy          gnorm     gmax       time
             ----- ------------------- --------- --------- --------
                 1     -216.9816365173  1.40D+00  3.94D-01      0.7
                 2     -217.0800633816  2.21D-01  6.34D-02      0.8
                 3     -217.0854787385  1.36D-02  3.53D-03      1.0
                 4     -217.0854966395  8.88D-05  2.66D-05      1.1
                 5     -217.0854966404  3.01D-09  8.31D-10      1.4


       Final RHF  results 
       ------------------ 

         Total SCF energy =   -217.085496640376
      One-electron energy =   -502.389928926830
      Two-electron energy =    179.526484188568
 Nuclear repulsion energy =    105.777948097886

        Time for solution =      0.9s


             Final eigenvalues
             -----------------

              1      
    1  -15.8774
    2  -15.8323
    3  -15.7898
    4  -15.7822
    5   -1.6856
    6   -1.0593
    7   -1.0580
    8   -0.9824
    9   -0.7127
   10   -0.5959
   11   -0.5946
   12   -0.5689
   13   -0.5668
   14   -0.5625
   15    0.1683
   16    0.1703
   17    0.1729
   18    0.2997
   19    0.3054
   20    0.3962
   21    0.6961
   22    0.8475
   23    0.8483
   24    0.9014

                       ROHF Final Molecular Orbital Analysis
                       -------------------------------------

 Vector    5  Occ=2.000000D+00  E=-1.685610D+00
              MO Center=  8.9D-04, -1.2D-03, -2.1D-03, r^2= 6.8D-01
   Bfn.  Coefficient  Atom+Function         Bfn.  Coefficient  Atom+Function  
  ----- ------------  ---------------      ----- ------------  ---------------
    47      0.249191  4 N  s                 17      0.246162  2 N  s          
     2      0.242416  1 N  s                 32      0.243048  3 N  s          

 Vector    6  Occ=2.000000D+00  E=-1.059344D+00
              MO Center= -5.9D-02, -4.6D-02,  1.2D-01, r^2= 1.3D+00
   Bfn.  Coefficient  Atom+Function         Bfn.  Coefficient  Atom+Function  
  ----- ------------  ---------------      ----- ------------  ---------------
    17      0.467336  2 N  s                  2     -0.314015  1 N  s          
    16      0.206713  2 N  s                 34      0.162394  3 N  px         
    50      0.158876  4 N  py         

 Vector    7  Occ=2.000000D+00  E=-1.057998D+00
              MO Center=  9.4D-02, -7.7D-02, -1.0D-01, r^2= 1.3D+00
   Bfn.  Coefficient  Atom+Function         Bfn.  Coefficient  Atom+Function  
  ----- ------------  ---------------      ----- ------------  ---------------
    47      0.496953  4 N  s                 46      0.219331  4 N  s          
    32     -0.204113  3 N  s                  2     -0.171216  1 N  s          
    36      0.163823  3 N  pz                 4     -0.162721  1 N  px         
    20      0.162723  2 N  py         

 Vector    8  Occ=2.000000D+00  E=-9.824464D-01
              MO Center= -1.1D-03,  2.1D-02, -6.2D-04, r^2= 1.4D+00
   Bfn.  Coefficient  Atom+Function         Bfn.  Coefficient  Atom+Function  
  ----- ------------  ---------------      ----- ------------  ---------------
    51      0.181201  4 N  pz                19      0.165664  2 N  px         
     5     -0.151391  1 N  py         

 Vector    9  Occ=2.000000D+00  E=-7.126554D-01
              MO Center= -9.8D-03,  3.2D-02, -1.0D-02, r^2= 2.0D+00
   Bfn.  Coefficient  Atom+Function         Bfn.  Coefficient  Atom+Function  
  ----- ------------  ---------------      ----- ------------  ---------------
    33      0.188783  3 N  s                  3      0.186044  1 N  s          
    18      0.182923  2 N  s                 48      0.182847  4 N  s          
    34      0.174588  3 N  px                35     -0.175399  3 N  py         
     5     -0.173433  1 N  py                36      0.173554  3 N  pz         
     4     -0.168065  1 N  px                 6     -0.166289  1 N  pz         

 Vector   10  Occ=2.000000D+00  E=-5.959298D-01
              MO Center= -1.5D-01, -2.9D-01,  2.5D-01, r^2= 1.7D+00
   Bfn.  Coefficient  Atom+Function         Bfn.  Coefficient  Atom+Function  
  ----- ------------  ---------------      ----- ------------  ---------------
    17      0.277092  2 N  s                  6      0.269603  1 N  pz         
    50     -0.266057  4 N  py                20      0.250826  2 N  py         
    34     -0.229152  3 N  px                21     -0.221905  2 N  pz         
    23     -0.193504  2 N  py                24      0.177534  2 N  pz         
    53      0.166130  4 N  py                 9     -0.158863  1 N  pz         

 Vector   11  Occ=2.000000D+00  E=-5.945633D-01
              MO Center=  2.6D-01, -3.5D-02, -1.7D-01, r^2= 1.7D+00
   Bfn.  Coefficient  Atom+Function         Bfn.  Coefficient  Atom+Function  
  ----- ------------  ---------------      ----- ------------  ---------------
     4      0.283080  1 N  px                36     -0.270639  3 N  pz         
    47      0.252301  4 N  s                 49     -0.237903  4 N  px         
    51      0.200786  4 N  pz                 7     -0.181900  1 N  px         
    52      0.176861  4 N  px                 2     -0.165573  1 N  s          
    39      0.162593  3 N  pz                54     -0.158067  4 N  pz         

 Vector   12  Occ=2.000000D+00  E=-5.689135D-01
              MO Center=  1.9D-03, -4.6D-02,  1.2D-03, r^2= 1.5D+00
   Bfn.  Coefficient  Atom+Function         Bfn.  Coefficient  Atom+Function  
  ----- ------------  ---------------      ----- ------------  ---------------
    50     -0.266328  4 N  py                20     -0.263147  2 N  py         
    35      0.255885  3 N  py                 5      0.253594  1 N  py         
    19      0.217976  2 N  px                49     -0.216600  4 N  px         
     4     -0.178558  1 N  px                34      0.175429  3 N  px         
    53      0.168293  4 N  py                 8     -0.165411  1 N  py         

 Vector   13  Occ=2.000000D+00  E=-5.668391D-01
              MO Center= -1.4D-01,  4.7D-01, -1.2D-01, r^2= 1.7D+00
   Bfn.  Coefficient  Atom+Function         Bfn.  Coefficient  Atom+Function  
  ----- ------------  ---------------      ----- ------------  ---------------
     5      0.279221  1 N  py                35     -0.277800  3 N  py         
    34      0.218561  3 N  px                38      0.215065  3 N  py         
    51     -0.205042  4 N  pz                37     -0.198471  3 N  px         
     8     -0.192249  1 N  py                19     -0.189658  2 N  px         
    49     -0.165064  4 N  px         

 Vector   14  Occ=2.000000D+00  E=-5.625271D-01
              MO Center= -4.3D-03,  1.0D-02,  3.6D-02, r^2= 1.5D+00
   Bfn.  Coefficient  Atom+Function         Bfn.  Coefficient  Atom+Function  
  ----- ------------  ---------------      ----- ------------  ---------------
    21      0.274761  2 N  pz                36     -0.270848  3 N  pz         
     6      0.261394  1 N  pz                51     -0.245611  4 N  pz         
     4     -0.213772  1 N  px                19      0.208949  2 N  px         
    39      0.181247  3 N  pz                24     -0.172393  2 N  pz         
    54      0.168206  4 N  pz                34      0.164319  3 N  px         

 Vector   15  Occ=0.000000D+00  E= 1.682795D-01
              MO Center=  1.2D-01, -1.2D-01,  2.3D-01, r^2= 1.7D+00
   Bfn.  Coefficient  Atom+Function         Bfn.  Coefficient  Atom+Function  
  ----- ------------  ---------------      ----- ------------  ---------------
     9      0.465996  1 N  pz                24     -0.466653  2 N  pz         
     7     -0.374972  1 N  px                52      0.372194  4 N  px         
    23     -0.366020  2 N  py                53      0.357019  4 N  py         
     6     -0.337994  1 N  pz                21      0.333476  2 N  pz         
     4      0.276682  1 N  px                49     -0.266405  4 N  px         

 Vector   16  Occ=0.000000D+00  E= 1.703487D-01
              MO Center= -1.9D-01, -1.4D-01, -1.6D-01, r^2= 1.7D+00
   Bfn.  Coefficient  Atom+Function         Bfn.  Coefficient  Atom+Function  
  ----- ------------  ---------------      ----- ------------  ---------------
    22      0.447017  2 N  px                37     -0.436115  3 N  px         
    54     -0.422172  4 N  pz                39      0.413321  3 N  pz         
    53      0.360797  4 N  py                23     -0.357725  2 N  py         
    19     -0.321318  2 N  px                34      0.322434  3 N  px         
    36     -0.305606  3 N  pz                51      0.301895  4 N  pz         

 Vector   17  Occ=0.000000D+00  E= 1.728665D-01
              MO Center=  7.3D-02,  2.3D-01, -5.3D-02, r^2= 1.8D+00
   Bfn.  Coefficient  Atom+Function         Bfn.  Coefficient  Atom+Function  
  ----- ------------  ---------------      ----- ------------  ---------------
     8      0.495318  1 N  py                38     -0.491640  3 N  py         
     5     -0.364008  1 N  py                35      0.365159  3 N  py         
    52      0.342974  4 N  px                 7     -0.331046  1 N  px         
    54      0.285180  4 N  pz                39     -0.273930  3 N  pz         
    49     -0.244425  4 N  px                 4      0.236949  1 N  px         

 Vector   18  Occ=0.000000D+00  E= 2.996572D-01
              MO Center= -2.7D-02, -2.2D-02,  9.0D-02, r^2= 1.6D+00
   Bfn.  Coefficient  Atom+Function         Bfn.  Coefficient  Atom+Function  
  ----- ------------  ---------------      ----- ------------  ---------------
    17     -0.547789  2 N  s                  2      0.499058  1 N  s          
    20      0.296639  2 N  py                 5      0.284501  1 N  py         
    23     -0.265167  2 N  py                 8     -0.251214  1 N  py         
    53     -0.246974  4 N  py                38     -0.243655  3 N  py         
    32      0.232869  3 N  s                 19      0.222895  2 N  px         

 Vector   19  Occ=0.000000D+00  E= 3.054383D-01
              MO Center=  6.6D-02, -1.4D-01, -8.3D-02, r^2= 1.6D+00
   Bfn.  Coefficient  Atom+Function         Bfn.  Coefficient  Atom+Function  
  ----- ------------  ---------------      ----- ------------  ---------------
    47      0.671828  4 N  s                 17     -0.380546  2 N  s          
    49      0.316819  4 N  px                51     -0.287621  4 N  pz         
    50     -0.262808  4 N  py                52     -0.246286  4 N  px         
    19      0.222988  2 N  px                32     -0.222004  3 N  s          
    22     -0.219165  2 N  px                21     -0.198280  2 N  pz         

 Vector   20  Occ=0.000000D+00  E= 3.961922D-01
              MO Center= -1.9D-02,  9.9D-02, -9.8D-03, r^2= 1.3D+00
   Bfn.  Coefficient  Atom+Function         Bfn.  Coefficient  Atom+Function  
  ----- ------------  ---------------      ----- ------------  ---------------
    36      0.364359  3 N  pz                34      0.318514  3 N  px         
     6      0.310160  1 N  pz                 4      0.264255  1 N  px         
    35     -0.248672  3 N  py                32     -0.244294  3 N  s          
    43     -0.211535  3 N  dyy               40     -0.196824  3 N  dxx        
     2      0.195565  1 N  s                 21      0.193168  2 N  pz         

 Vector   21  Occ=0.000000D+00  E= 6.961480D-01
              MO Center=  5.3D-03, -2.6D-02,  3.9D-03, r^2= 3.0D+00
   Bfn.  Coefficient  Atom+Function         Bfn.  Coefficient  Atom+Function  
  ----- ------------  ---------------      ----- ------------  ---------------
    17      0.649780  2 N  s                 18     -0.647088  2 N  s          
    47      0.648695  4 N  s                  2      0.643145  1 N  s          
    48     -0.646139  4 N  s                 32      0.642297  3 N  s          
     3     -0.635670  1 N  s                 33     -0.628368  3 N  s          

 Vector   22  Occ=0.000000D+00  E= 8.475319D-01
              MO Center= -2.2D-01, -4.7D-01,  4.0D-01, r^2= 2.7D+00
   Bfn.  Coefficient  Atom+Function         Bfn.  Coefficient  Atom+Function  
  ----- ------------  ---------------      ----- ------------  ---------------
    17      0.523701  2 N  s                 22      0.501789  2 N  px         
    19      0.455308  2 N  px                23      0.446069  2 N  py         
    24     -0.440183  2 N  pz                18     -0.404555  2 N  s          
    21     -0.370442  2 N  pz                20      0.360776  2 N  py         
    49      0.327080  4 N  px                52      0.318381  4 N  px         

 Vector   23  Occ=0.000000D+00  E= 8.482682D-01
              MO Center=  4.1D-01, -6.1D-02, -2.7D-01, r^2= 2.9D+00
   Bfn.  Coefficient  Atom+Function         Bfn.  Coefficient  Atom+Function  
  ----- ------------  ---------------      ----- ------------  ---------------
    53      0.479060  4 N  py                47      0.469034  4 N  s          
    50      0.449131  4 N  py                54      0.394303  4 N  pz         
     5      0.385169  1 N  py                 8      0.386662  1 N  py         
    52     -0.386134  4 N  px                48     -0.358564  4 N  s          
    35      0.343150  3 N  py                 2     -0.336927  1 N  s          

 Vector   24  Occ=0.000000D+00  E= 9.014325D-01
              MO Center= -1.0D-01,  2.8D-01, -7.9D-02, r^2= 2.9D+00
   Bfn.  Coefficient  Atom+Function         Bfn.  Coefficient  Atom+Function  
  ----- ------------  ---------------      ----- ------------  ---------------
    39      0.442420  3 N  pz                36      0.413665  3 N  pz         
     9      0.385385  1 N  pz                 6      0.378564  1 N  pz         
    33     -0.359917  3 N  s                 37      0.354754  3 N  px         
    21      0.330083  2 N  pz                34      0.313308  3 N  px         
    51      0.308893  4 N  pz                 7      0.307187  1 N  px         


 center of mass
 --------------
 x =   0.00000000 y =   0.00000000 z =   0.00000000

 moments of inertia (a.u.)
 ------------------
         108.180184876804          -0.260030490378           0.260030490378
          -0.260030490378         107.656373456283           0.003750439765
           0.260030490378           0.003750439765         108.696495417795

  Mulliken analysis of the total density
  --------------------------------------

    Atom       Charge   Shell Charges
 -----------   ------   -------------------------------------------------------
    1 N    7     7.01   1.96  0.88  0.43  2.14  1.21  0.39
    2 N    7     6.99   1.99  1.10  0.42  2.07  1.19  0.22
    3 N    7     7.02   1.94  0.70  0.43  2.19  1.23  0.52
    4 N    7     6.99   1.99  1.14  0.42  2.06  1.18  0.19

       Multipole analysis of the density wrt the origin
       ------------------------------------------------

     L   x y z        total         open         nuclear
     -   - - -        -----         ----         -------
     0   0 0 0     -0.000000      0.000000     28.000000

     1   1 0 0      0.049074      0.000000      0.000000
     1   0 1 0     -0.158165      0.000000      0.000000
     1   0 0 1      0.025068      0.000000      0.000000

     2   2 0 0    -17.336163      0.000000     27.037242
     2   1 1 0      0.087388      0.000000      0.129987
     2   1 0 1     -0.452076      0.000000     -0.129987
     2   0 2 0    -17.174541      0.000000     27.299090
     2   0 1 1      0.137404      0.000000     -0.001875
     2   0 0 2    -17.558557      0.000000     26.779143


 Parallel integral file used      37 records with       0 large values


 Task  times  cpu:        1.2s     wall:        1.6s
 Summary of allocated global arrays
-----------------------------------
  No active global arrays



                         GA Statistics for process    0
                         ------------------------------

       create   destroy   get      put      acc     scatter   gather  read&inc
calls:  476      476     5147     2935     3085        0        0       61     
number of processes/call 1.00e+00 1.00e+00 1.00e+00 0.00e+00 0.00e+00
bytes total:             1.07e+07 7.15e+06 2.15e+06 0.00e+00 0.00e+00 4.88e+02
bytes remote:            0.00e+00 0.00e+00 0.00e+00 0.00e+00 0.00e+00 0.00e+00
Max memory consumed for GA by this process: 366848 bytes
MA_summarize_allocated_blocks: starting scan ...
MA_summarize_allocated_blocks: scan completed: 0 heap blocks, 0 stack blocks
MA usage statistics:

	allocation statistics:
					      heap	     stack
					      ----	     -----
	current number of blocks	         0	         0
	maximum number of blocks	        17	        14
	current total bytes		         0	         0
	maximum total bytes		  28328160	  22510424
	maximum total K-bytes		     28329	     22511
	maximum total M-bytes		        29	        23


                                NWChem Input Module
                                -------------------





                                     CITATION
                                     --------
                Please cite the following reference when publishing
                           results obtained with NWChem:

                 M. Valiev, E.J. Bylaska, N. Govind, K. Kowalski,
              T.P. Straatsma, H.J.J. van Dam, D. Wang, J. Nieplocha,
                        E. Apra, T.L. Windus, W.A. de Jong
                 "NWChem: a comprehensive and scalable open-source
                  solution for large scale molecular simulations"
                      Comput. Phys. Commun. 181, 1477 (2010)
                           doi:10.1016/j.cpc.2010.04.018

                                      AUTHORS
                                      -------
          E. Apra, E. J. Bylaska, W. A. de Jong, N. Govind, K. Kowalski,
       T. P. Straatsma, M. Valiev, H. J. J. van Dam, D. Wang, T. L. Windus,
        J. Hammond, J. Autschbach, K. Bhaskaran-Nair, J. Brabec, K. Lopata,
       S. A. Fischer, S. Krishnamoorthy, W. Ma, M. Klemm, O. Villa, Y. Chen,
    V. Anisimov, F. Aquino, S. Hirata, M. T. Hackler, T. Risthaus, M. Malagoli,
       A. Marenich, A. Otero-de-la-Roza, J. Mullin, P. Nichols, R. Peverati,
     J. Pittner, Y. Zhao, P.-D. Fan, A. Fonari, M. Williamson, R. J. Harrison,
       J. R. Rehr, M. Dupuis, D. Silverstein, D. M. A. Smith, J. Nieplocha,
        V. Tipparaju, M. Krishnan, B. E. Van Kuiken, A. Vazquez-Mayagoitia,
        L. Jensen, M. Swart, Q. Wu, T. Van Voorhis, A. A. Auer, M. Nooijen,
      L. D. Crosby, E. Brown, G. Cisneros, G. I. Fann, H. Fruchtl, J. Garza,
        K. Hirao, R. A. Kendall, J. A. Nichols, K. Tsemekhman, K. Wolinski,
     J. Anchell, D. E. Bernholdt, P. Borowski, T. Clark, D. Clerc, H. Dachsel,
   M. J. O. Deegan, K. Dyall, D. Elwood, E. Glendening, M. Gutowski, A. C. Hess,
         J. Jaffe, B. G. Johnson, J. Ju, R. Kobayashi, R. Kutteh, Z. Lin,
   R. Littlefield, X. Long, B. Meng, T. Nakajima, S. Niu, L. Pollack, M. Rosing,
   K. Glaesemann, G. Sandrone, M. Stave, H. Taylor, G. Thomas, J. H. van Lenthe,
                               A. T. Wong, Z. Zhang.

 Total times  cpu:        1.4s     wall:        6.3s
