[Molden Format]
[Molpro variables]
_NUMVAR=  786.0000000000000    
_AVOGAD= 0.6022136736000000E+24
_BOLTZ= 0.1380658000000000E-22
_CLIGHT=  29979245800.00000    
_EV2006= 0.3674930886769165E-01
_EV= 0.3674932534394180E-01
_ENULL= 0.8854187817000000E-11
_KJOULE= 0.3808798324128737E-03
_KJOULE/MOL= 0.3808798324128737E-03
_CM= 0.4556335267302901E-05
_CM-1= 0.4556335267302901E-05
_DEB2SI= 0.3335641000000000E-29
_AMU2AU=  1822.888390000000    
_KCAL= 0.1593601117815568E-02
_KCAL/MOL= 0.1593601117815568E-02
_KELVIN2006= 0.3166828861084835E-05
_KELVIN= 0.3166814820820034E-05
_JOULE= 0.4359748200000000E-17
_HERTZ2006= 0.1519829850815779E-15
_HERTZ= 0.1519829846011223E-15
_HZ2006= 0.1519829850815779E-15
_HZ= 0.1519829846011223E-15
_JPCAL=  4.184000000000000    
_PLANCK= 0.6626075540000000E-33
_TOA2006= 0.5291772490000000    
_TOA= 0.5291772090000000    
_TOANG2006= 0.5291772490000000    
_TOANG= 0.5291772090000000    
_TORAD= 0.1745329251994330E-01
_TOCM=  219474.6306700000    
_TODEBYE=  2.541580000000000    
_TOEV2006=  27.21139610000000    
_TOE= 0.4803242000000000E-09
_TOEV=  27.21138390000000    
_TOHERTZ2006=  6579683899900000.    
_TOHERTZ=  6579683920700000.    
_TOHZ2006=  6579683899900000.    
_TOHZ=  6579683920700000.    
_TOK2006=  315773.3000000000    
_TOK=  315774.7000000000    
_TOKCAL=  627.5096000000000    
_TOKELVIN2006=  315773.3000000000    
_TOKELVIN=  315774.7000000000    
_TOKJ=  2625.500000000000    
_TOKJOULE=  2625.500000000000    
_TOKG= 0.1660565586000000E-26
_ANG2006=  1.889725988578923    
_ANG=  1.889726131421507    
_ANGSTROM2006=  1.889725988578923    
_ANGSTROM=  1.889726131421507    
_RPAREF=  0.000000000000000    
_RPADISS=  0.000000000000000    
_IGNORE_UNDEF=  2.000000000000000    
_STRICTCHECK=  0.000000000000000    
_SEW_ONEEL=  0.000000000000000    
_CPPDONE=FALSE
_DKROLL_DONE=  0.000000000000000    
_FOCKDONE=TRUE
_GRADONE=FALSE
_HESSDONE=FALSE
_INTDONE=TRUE
_SCFDONE=TRUE
_MODUL_BLOCK=FALSE
_MODUL_CUDA=FALSE
_MODUL_SLATER=FALSE
_MODUL_MRCC=FALSE
_MODUL_NBO6=FALSE
_MODUL_NECI=TRUE
_MODUL_AIMS=TRUE
_MRCC_EXEC=
_FITC_AO_SAVED=FALSE
_FITC_MO_SAVED=FALSE
_SHARED_FS=TRUE
_LSTYP=SEWARD
_INTYP=INTS
_GEOMTYP=ZMAT
_GRADTYP=ALASKA
_DIRECT=FALSE
_DKHO= -1.000000000000000    
_SYNCM=  0.000000000000000    
_BASIS=DEF2-SVP
_ZORIENT=  1.000000000000000    
_NELEC=  27.00000000000000    
!SPIN=  1.000000000000000    
_QSDSTEP=  0.000000000000000    
_QSDIRC=  0.000000000000000    
_PROGRAM=UHF-SCF
_CPUSTEP= 0.9700000000000001    
_SYSSTEP= 0.1999999999999997    
_WALLSTEP=  1.420000000000000    
!DFSCF=  0.000000000000000    
!SCSGRD=  0.000000000000000    
_BASINP=  610.0000000000000    
_CPUTOT=  1.590000000000000    
_CPUSORT= 0.1500000000000000    
_SYSSORT=  2.830000000000000    
_WALLSORT=  3.019999999552965    
_DMX=-0.2892199537994196E-02
_DMY= 0.8128609303945489E-02
_DMZ= 0.4516979494568613E-02
_DMX_SCF=-0.2892199537994196E-02
_DMY_SCF= 0.8128609303945489E-02
_DMZ_SCF= 0.4516979494568613E-02
_EHOMO=-0.8841925936462958    
_ELUMO=-0.4569861386796688    
_ENERGY= -216.8138885037876    
_ENUC=  105.7779401022931    
_GRADEXFAC=  9999.000000000000    
_GRADMETHOD=  3.000000000000000    
_NMRMETHOD=  0.000000000000000    
!GRID_FREEZE= -1.000000000000000    
_ITERATIONS=  41.00000000000000    
_LASTNELEC=  27.00000000000000    
_LASTSPIN=  1.000000000000000    
_LASTSYM=  1.000000000000000    
_MPP_PROG=  0.000000000000000    
_NPROC_MPP=  1.000000000000000    
_NPROC_MPPX=  1.000000000000000    
_NPROC_SMP=  1.000000000000000    
_NUMSTEP=  0.000000000000000    
_ORBITAL=  2200.200000000000    
_PI=  3.141592653589793    
_SEIG_MIN= 0.7342930502941786E-02
_SEWPROP=TRUE
_SSQUARED= 0.7855099733623181    
_STATUS=  1.000000000000000    
_SYSTOT=  3.410000000000000    
_VERSION=  2012001.000000000    
_WALLTOT=  5.360000000000000    
_DATE=03-Jun-15
_LASTORB=UHFNAT
_MACHINE=Linux-3.13.0-32-generic/kbob-G41MT-S2(x86_64) 64 bit serial version
_OUTPUT=/home/kbob/git/molden2qmc/test/N4/MOLPRO/UHF/SVP/N4.xml
_PGROUP=C1
_TIME=18:57:17
_LIBMOL=/usr/local/molpro/molpros_2012_1_Linux_x86_64_i8/lib/
!VIBCNT=  0.000000000000000    
!RGHFCNT=  0.000000000000000    
!SURFREC=  0.000000000000000    
!POLYREC=  0.000000000000000    
!DIPREC=  0.000000000000000    
!VSCFREC=  0.000000000000000    
!VCIREC=  0.000000000000000    
!PVCIREC=  0.000000000000000    
!VMP2REC=  0.000000000000000    
!VMCSCFREC=  0.000000000000000    
!VMRCIREC=  0.000000000000000    
!VIBINFO=  0.000000000000000    
!GAREC=  0.000000000000000    
!SCFORB=  22002.00000000000    
!UNO_OCC=  14.00000000000000    
!UNO_CLOSED=  13.00000000000000    
!NEWMOL= -1.000000000000000    
!NEWSYM= -1.000000000000000    
_SLFILES=slscratch
_NGSSTO=  9.000000000000000    
_SIN=SIN
_COS=COS
_TAN=TAN
_ACOS=ACOS
_ASIN=ASIN
_ATAN=ATAN
_COSH=COSH
_SINH=SINH
_TANH=TANH
_ABS=ABS
_MOD=MOD
_ERF=ERF
_REFC=REFC
_ERFC=ERFC
_HYPOT=HYPOT
_J0=J0
_J1=J1
_JN=JN
_GAMMA=GAMMA
_LGAMMA=LGAMMA
_Y0=Y0
_Y1=Y1
_YN=YN
_EXP=EXP
_LOG=LOG
_LOG10=LOG10
_SQRT=SQRT
_INT=INT
_NINT=NINT
_MAX=MAX
_MIN=MIN
_COSMO=  0.000000000000000    
_COSMOIT=  0.000000000000000    
_COSMOES=  0.000000000000000    
_COSMOEDS=  0.000000000000000    
_COSMOEC=  0.000000000000000    
_COSMOEDCORR=  0.000000000000000    
_FEPSI=  1.000000000000000    
_SL_IsMM=  0.000000000000000    
_SL_NSYM=  1.000000000000000    
_SL_System_BitSw=  0.000000000000000    
_SL_Unique_atoms=  0.000000000000000    
_SL_GRAD=  0.000000000000000    
_SL_MAXUPD_Hess=  5.000000000000000    
_SL_N_PRINT_COD=  5.000000000000000    
_SL_PRINT_CODES=  0.000000000000000    
_SL_BasType=  0.000000000000000    
_SL_Energy_Pred=  0.000000000000000    
_SL_New_Coords=  0.000000000000000    
_SL_Total_Nuclea=  0.000000000000000    
_SL_Highest_Mltp=  0.000000000000000    
_SL_Ref_Geom=  0.000000000000000    
_SL_Symmetry_ope=  1.000000000000000    
_SL_agrad=  0.000000000000000    
_SL_GrdMax=  0.000000000000000    
_SL_GrdNorm=  0.000000000000000    
_SL_GrdRMS=  0.000000000000000    
!LATTICE= -1.000000000000000    
!NEWLATTICE=  0.000000000000000    
!LATGRAD_VAR=FALSE
!SEW_LATTICE=  1.000000000000000    
!LOCAL=  0.000000000000000    
!SAVEDOM= -1.000000000000000    
!RESTDOM= -1.000000000000000    
!SAVEDOM_HF= -1.000000000000000    
!RESTDOM_HF= -1.000000000000000    
!HESSREC=  0.000000000000000    
!FREQREC=  0.000000000000000    
!NMODREC=  0.000000000000000    
!GTASKS=  0.000000000000000    
!HTASKS=  0.000000000000000    
!THRCHG= 0.1000000000000000    
!DEBUG= -1.000000000000000    
!CFIT_CPHF=  0.000000000000000    
!RDOMAUX_CPHF=  3.000000000000000    
!THRAO_CPHF= 0.1000000000000000E-09
!THRMO_CPHF= 0.1000000000000000E-08
!THROV_CPHF= 0.1000000000000000E-11
!THRSW_CPHF= 0.1000000000000000E-09
!THRPROD_CPHF= 0.1000000000000000E-08
!THRAOPR_CPHF= 0.1000000000000000E-11
!CFIT_SCFGRD=  0.000000000000000    
!RDOMAUX_SCFGRD=  5.000000000000000    
!THRAO_SCFGRD= 0.1000000000000000E-09
!THRMO_SCFGRD= 0.1000000000000000E-08
!THROV_SCFGRD= 0.1000000000000000E-11
!THRSW_SCFGRD= 0.1000000000000000E-09
!THRPROD_SCFGRD= 0.1000000000000000E-08
!THRAOPR_SCFGRD= 0.1000000000000000E-11
!LOCFIT_SCF=  0.000000000000000    
!LOCFIT_MP2= -1.000000000000000    
_RIDOM=  0.000000000000000    
!CC2_METHOD=  0.000000000000000    
_BASIS2006=FALSE
_SVDDEL= -1.000000000000000    
_SVDDELA= -1.000000000000000    
_SVDDELP= -1.000000000000000    
_SVDDELF= -1.000000000000000    
_SVDDELS= -1.000000000000000    
_SVDDEL_ABS= -1.000000000000000    
_SVDDELA_ABS= -1.000000000000000    
_SVDDELP_ABS= -1.000000000000000    
_SVDDELF_ABS= -1.000000000000000    
_SVDDELS_ABS= -1.000000000000000    
_MAXBASIS=  0.000000000000000    
!OPT_CONICAL=  0.000000000000000    
!CLEARSP_JGRID=  0.000000000000000    
_4EXT_NDISKS=  1.000000000000000    
!ZMP=  0.000000000000000    
_MAXIT_ZMP=  500.0000000000000    
_MAXDIS_ZMP=  100.0000000000000    
_ACCU_ZMP=  14.00000000000000    
_SHIFTA_ZMP= -100.0000000000000    
!EMBEDFLAG=  1.000000000000000    
!EMBED=FALSE
!EMBED_F12=FALSE
!EMBEDNUC=  0.000000000000000    
_EMBEDENERGY=  0.000000000000000    
_KSPACETIME=  0.000000000000000    
_RSPACETIME=  0.000000000000000    
!EMBED_DFC=FALSE
!NUM_VOIDS=  0.000000000000000    
_IBODY=  0.000000000000000    
_EMBE_TOTAL=  0.000000000000000    
_EMBE_HF=  0.000000000000000    
_EMBE_CORR=  0.000000000000000    
!EDFT=  0.000000000000000    
_IFASTLATGRAD=  0.000000000000000    
_SINDEX=  0.000000000000000    
GEOMTYP=XYZ
CHARGE=  1.000000000000000    
GX1= 0.5200000000000000    
GY1= 0.5300000000000000    
GZ1= 0.5100000000000000    
GX2=-0.5200000000000000    
GY2=-0.5200000000000000    
GZ2= 0.5200000000000000    
GX3=-0.5200000000000000    
GY3= 0.5200000000000000    
GZ3=-0.5200000000000000    
GX4= 0.5200000000000000    
GY4=-0.5200000000000000    
GZ4=-0.5200000000000000    
[Atoms] Angs
N     1    7         0.5200000000        0.5300000000        0.5100000000
N     2    7        -0.5200000000       -0.5200000000        0.5200000000
N     3    7        -0.5200000000        0.5200000000       -0.5200000000
N     4    7         0.5200000000       -0.5200000000       -0.5200000000
[GTO]
  1 0
 s    5  1.00
  0.1712841585D+04 -0.5447799580D-02
  0.2576481268D+03 -0.4062717463D-01
  0.5845824585D+02 -0.1811196225D+00
  0.1619836791D+02 -0.4684397556D+00
  0.5005260081D+01 -0.4461684629D+00
 s    1  1.00
  0.5873185657D+00  0.1000000000D+01
 s    1  1.00
  0.1876459225D+00  0.1000000000D+01
 p    3  1.00
  0.1357147023D+02 -0.5884811697D-01
  0.2925737287D+01 -0.3202462476D+00
  0.7992775075D+00 -0.7532822652D+00
 p    1  1.00
  0.2195434803D+00  0.1000000000D+01
 d    1  1.00
  0.1000000000D+01  0.1000000000D+01
  
  2 0
 s    5  1.00
  0.1712841585D+04 -0.5447799580D-02
  0.2576481268D+03 -0.4062717463D-01
  0.5845824585D+02 -0.1811196225D+00
  0.1619836791D+02 -0.4684397556D+00
  0.5005260081D+01 -0.4461684629D+00
 s    1  1.00
  0.5873185657D+00  0.1000000000D+01
 s    1  1.00
  0.1876459225D+00  0.1000000000D+01
 p    3  1.00
  0.1357147023D+02 -0.5884811697D-01
  0.2925737287D+01 -0.3202462476D+00
  0.7992775075D+00 -0.7532822652D+00
 p    1  1.00
  0.2195434803D+00  0.1000000000D+01
 d    1  1.00
  0.1000000000D+01  0.1000000000D+01
  
  3 0
 s    5  1.00
  0.1712841585D+04 -0.5447799580D-02
  0.2576481268D+03 -0.4062717463D-01
  0.5845824585D+02 -0.1811196225D+00
  0.1619836791D+02 -0.4684397556D+00
  0.5005260081D+01 -0.4461684629D+00
 s    1  1.00
  0.5873185657D+00  0.1000000000D+01
 s    1  1.00
  0.1876459225D+00  0.1000000000D+01
 p    3  1.00
  0.1357147023D+02 -0.5884811697D-01
  0.2925737287D+01 -0.3202462476D+00
  0.7992775075D+00 -0.7532822652D+00
 p    1  1.00
  0.2195434803D+00  0.1000000000D+01
 d    1  1.00
  0.1000000000D+01  0.1000000000D+01
  
  4 0
 s    5  1.00
  0.1712841585D+04 -0.5447799580D-02
  0.2576481268D+03 -0.4062717463D-01
  0.5845824585D+02 -0.1811196225D+00
  0.1619836791D+02 -0.4684397556D+00
  0.5005260081D+01 -0.4461684629D+00
 s    1  1.00
  0.5873185657D+00  0.1000000000D+01
 s    1  1.00
  0.1876459225D+00  0.1000000000D+01
 p    3  1.00
  0.1357147023D+02 -0.5884811697D-01
  0.2925737287D+01 -0.3202462476D+00
  0.7992775075D+00 -0.7532822652D+00
 p    1  1.00
  0.2195434803D+00  0.1000000000D+01
 d    1  1.00
  0.1000000000D+01  0.1000000000D+01
 
 
[MO]
 Sym=      1.1
 Ene=     -16.1254
 Spin= Alpha
 Occup=    1.000000
1 0.046154673790637
2 -0.001936280730371
3 -0.003903896918401
4 -0.000242561112135
5 -0.000135972654099
6 -0.000105319712573
7 -0.000890753885839
8 0.001018615778921
9 0.001342843473940
10 -0.000377803916610
11 0.000170352121492
12 0.000207451795118
13 0.000147605647026
14 0.000244707505414
15 0.000766657964355
16 0.042144772641092
17 -0.001788224507069
18 -0.004103705628081
19 0.000121111072399
20 0.000238165867501
21 -0.000100629141828
22 -0.001078382530045
23 0.000843271770475
24 0.001390818782161
25 0.000147531353721
26 -0.000370066815925
27 0.000222535462204
28 0.000149269761286
29 -0.000768346446947
30 -0.000239288034292
31 0.17448966422584
32 -0.006220380863160
33 -0.000460593630059
34 0.000425839951989
35 -0.000432962504666
36 0.000558608629515
37 -0.000533406873768
38 0.000522649932041
39 0.001694719921539
40 0.000198958867696
41 0.000227837334748
42 -0.000426796202444
43 -0.000737578817323
44 0.000146251401344
45 -0.000129662909223
46 0.97356462842251
47 -0.032755677163705
48 0.020116034576693
49 -0.002380873704369
50 0.002439929002515
51 0.002353133626168
52 -0.004234627596717
53 0.004237799394003
54 0.004535059658988
55 0.000015485231275
56 0.000145475320029
57 -0.000160960551304
58 -0.000030406824284
59 -0.000096238655776
60 0.000010807294926
 Sym=      2.1
 Ene=     -16.1243
 Spin= Alpha
 Occup=    1.000000
1 0.044731040878794
2 -0.001773920821961
3 -0.002508644615383
4 -0.000066914256723
5 -0.000249867953419
6 -0.000089920101425
7 0.001398467491284
8 -0.001390367168377
9 0.000880434165022
10 0.000310954080348
11 -0.000463293767239
12 0.000152339686891
13 0.000115163587461
14 0.000750482896064
15 -0.000025373942179
16 0.036368297047133
17 -0.001486252145332
18 -0.002717911953550
19 0.000221961597471
20 0.000060768504632
21 -0.000088252127301
22 0.001327977432606
23 -0.001447703317340
24 0.000912229344060
25 -0.000456203882725
26 0.000310150382706
27 0.000146053500019
28 0.000109692148321
29 0.000026471330602
30 -0.000728805309843
31 0.97317969630268
32 -0.032645150644372
33 0.021677920281996
34 0.002366137478342
35 -0.002409352799037
36 0.002370565190605
37 0.004728562730159
38 -0.004724119355571
39 0.004246792277545
40 -0.000070882770975
41 0.000062560722728
42 0.000008322048248
43 0.000245617047942
44 0.000036889825440
45 0.000026497660139
46 -0.17796333680032
47 0.005625138598160
48 -0.008192359401177
49 0.000432760696042
50 -0.000444927251826
51 -0.000296035454804
52 0.002172423364127
53 -0.002189446646257
54 0.000045469326006
55 0.000200270731957
56 0.000193524751884
57 -0.000393795483840
58 -0.000776092031351
59 -0.000125973176277
60 0.000144550065122
 Sym=      3.1
 Ene=     -16.1206
 Spin= Alpha
 Occup=    1.000000
1 0.95457553201573
2 -0.031940224600724
3 0.020064602617098
4 -0.002358116996058
5 -0.002381628102758
6 -0.002244191105344
7 -0.004086038802906
8 -0.004072847503109
9 -0.004698681819085
10 0.000059390596496
11 0.000186376526978
12 -0.000245767123474
13 0.000089832724894
14 -0.000023334385538
15 -0.000094055003960
16 0.25530507337380
17 -0.008783356422608
18 0.002015414308292
19 0.000623939616732
20 0.000634811500049
21 -0.000724823295417
22 -0.000158724231056
23 -0.000138722248621
24 -0.002229810125883
25 0.000214454663681
26 0.000244335162544
27 -0.000458789826226
28 0.000671416434579
29 -0.000070119785388
30 -0.000034321253762
31 -0.061524713609015
32 0.001668386673166
33 -0.006076112129119
34 -0.000133108255995
35 0.000019261428167
36 -0.000175954099079
37 -0.001271958848560
38 -0.000435849458833
39 -0.001966062788932
40 0.000103348533893
41 -0.000388394489629
42 0.000285045955736
43 -0.000092518196541
44 0.000774619518718
45 -0.000290436764963
46 -0.045088523641843
47 0.001135405577015
48 -0.005657909125892
49 -0.000017709074744
50 -0.000084733494499
51 -0.000121894850060
52 -0.000480090755280
53 -0.001193120070631
54 -0.001908063548698
55 -0.000375236692014
56 0.000097465585878
57 0.000277771106136
58 -0.000081481931402
59 -0.000287913243831
60 0.000755812763388
 Sym=      4.1
 Ene=     -16.1200
 Spin= Alpha
 Occup=    1.000000
1 0.25852575543986
2 -0.008347210240203
3 0.009232161532470
4 -0.000631783588968
5 -0.000640646241749
6 -0.000471596630298
7 -0.002469535282474
8 -0.002491035173850
9 -0.000130181322358
10 -0.000200332670950
11 -0.000191025647521
12 0.000391358318471
13 -0.000732090772609
14 -0.000067343656750
15 -0.000091280049503
16 -0.95599083458808
17 0.031796549678118
18 -0.021835682909923
19 -0.002325800325088
20 -0.002362493900132
21 0.002207310638715
22 -0.004710313779220
23 -0.004724855111252
24 0.004167218091838
25 0.000034972595664
26 -0.000045319868123
27 0.000010347272459
28 0.000295243779820
29 -0.000031840151530
30 -0.000120025306423
31 0.028145986808639
32 -0.000720674603141
33 0.003291425049308
34 -0.000066283826006
35 -0.000111925097147
36 0.000072491864236
37 -0.001226882063959
38 -0.001649864440773
39 0.001093070849898
40 0.000484817902207
41 -0.000323648425822
42 -0.000161169476385
43 0.000057219513777
44 0.000103822825716
45 0.000707504319854
46 0.023974556033849
47 -0.000585119294542
48 0.003269610247763
49 -0.000098119527730
50 -0.000073487007252
51 0.000064669741857
52 -0.001643760827293
53 -0.001241291522726
54 0.001108196859439
55 -0.000319596327214
56 0.000486851866916
57 -0.000167255539702
58 0.000054691799989
59 0.000699733262551
60 0.000097206805162
 Sym=      5.1
 Ene=      -2.0503
 Spin= Alpha
 Occup=    1.000000
1 0.13002875917787
2 0.26714124296104
3 0.061641293049527
4 0.080115671203563
5 0.081636478959997
6 0.077808757068960
7 -0.022202969847638
8 -0.023359554318334
9 -0.020548088027048
10 0.000031212847313
11 -0.000728660915021
12 0.000697448067708
13 0.014322370680732
14 0.011425665994946
15 0.013563978198132
16 0.12906044393521
17 0.26521768036419
18 0.060267145442826
19 -0.078844816261875
20 -0.080923219618820
21 0.078208953428835
22 0.021627493129429
23 0.022715945279488
24 -0.020556298326854
25 -0.000202063455194
26 -0.000777530233692
27 0.000979593688887
28 0.014213995278096
29 -0.011586804842712
30 -0.013398526155946
31 0.13237020354443
32 0.27254711299951
33 0.064811116264385
34 -0.081408878646665
35 0.081698074098226
36 -0.079985717418049
37 0.022737712005817
38 -0.023735203181019
39 0.022284913441536
40 0.000356639869051
41 -0.001113434790255
42 0.000756794921204
43 -0.014856269490426
44 0.011425896851178
45 -0.013027986661015
46 0.13188574203063
47 0.27182690553214
48 0.064383254494296
49 0.080740377249956
50 -0.082675225590708
51 -0.078649463259145
52 -0.022639363862265
53 0.023698394275416
54 0.021891398035572
55 0.000139273575559
56 -0.000936371631959
57 0.000797098056400
58 -0.014847305017547
59 -0.011116766470480
60 0.013169013025696
 Sym=      6.1
 Ene=      -1.4231
 Spin= Alpha
 Occup=    1.000000
1 -0.12069834441540
2 -0.26175598674070
3 -0.23419380570165
4 -0.10005445123444
5 -0.061060892549627
6 0.13837757195262
7 0.057642899162886
8 0.049807763739886
9 0.007713046195229
10 -0.013583886610126
11 -0.006322082105672
12 0.019905968715798
13 -0.018135466719470
14 0.006565952032194
15 0.009290223146650
16 -0.14257042506498
17 -0.30905011243567
18 -0.27458668735065
19 0.060441702434879
20 0.094924972138158
21 0.12252645972823
22 -0.055213926642985
23 -0.063082940817184
24 0.017783309457924
25 -0.006742700227819
26 -0.011289629727630
27 0.018032329955449
28 -0.017312185286186
29 -0.009342775035680
30 -0.003965978103392
31 0.10530031954255
32 0.22811927173179
33 0.20742964530717
34 -0.093668376223209
35 0.075598342279774
36 0.14803289446229
37 0.052318717238939
38 -0.048590587685231
39 0.002106089634115
40 0.013177295332548
41 0.009045596158407
42 -0.022222891490955
43 -0.019382184385017
44 -0.008248329915571
45 0.009342967527935
46 0.15495166080043
47 0.33693869700444
48 0.29776331070169
49 0.068828989428716
50 -0.083411906607045
51 0.12096623159557
52 -0.060653404056774
53 0.064459384133829
54 0.020377653642368
55 0.008536053643911
56 0.008832838485374
57 -0.017368892129285
58 -0.017403666964040
59 0.009172436542548
60 -0.005701907780957
 Sym=      7.1
 Ene=      -1.4133
 Spin= Alpha
 Occup=    1.000000
1 0.12283169491970
2 0.26663936758334
3 0.23673326761668
4 -0.12592266976427
5 0.10918308554136
6 0.043427228667241
7 -0.010872080868069
8 -0.060031895455477
9 -0.044462106056988
10 -0.021484610355068
11 0.014751160410421
12 0.006733449944648
13 -0.002475313359223
14 -0.011062615057434
15 0.016696441211827
16 -0.085741714184230
17 -0.18619404968255
18 -0.16253420425595
19 -0.14723602621205
20 0.086275053746045
21 -0.081478344716327
22 0.005289077026107
23 -0.043165326501628
24 0.041125874594895
25 0.024154699315906
26 -0.011950364574892
27 -0.012204334741014
28 0.007243369081175
29 -0.008799345120690
30 0.018393177700103
31 -0.17485492414832
32 -0.38156021548757
33 -0.33285628648834
34 -0.10281362991120
35 -0.063386569888237
36 0.075302995161752
37 -0.028753067417924
38 0.064059693906185
39 -0.066367308211339
40 0.017042779248075
41 -0.005710825839515
42 -0.011331953408560
43 -0.003771136992994
44 0.006393501054737
45 0.013946745146045
46 0.13807141698035
47 0.30168353657275
48 0.25922988372062
49 -0.12448163739986
50 -0.043088130623816
51 -0.11210142960562
52 -0.012627241209682
53 0.048859079956449
54 0.062232558291849
55 -0.020308044179942
56 0.003386968872858
57 0.016921075307085
58 0.009057017559978
59 0.004007919812794
60 0.016368988804609
 Sym=      8.1
 Ene=      -1.4013
 Spin= Alpha
 Occup=    1.000000
1 -0.15569893897283
2 -0.34021267204154
3 -0.28897789850086
4 -0.050353964987505
5 0.10555182630297
6 -0.092984612511022
7 0.053569926751826
8 0.021130819946430
9 0.060476424527288
10 -0.006513247987787
11 0.021389404327492
12 -0.014876156339705
13 0.006653466470811
14 -0.013387652762978
15 0.001386604516820
16 0.16265951572025
17 0.35513335847669
18 0.30252573409288
19 -0.052300930300252
20 0.10091510746165
21 0.085086911762973
22 0.055791528206521
23 0.024058758472720
24 -0.061678032441079
25 0.006704333331588
26 -0.020683465319912
27 0.013979131988325
28 -0.005559616359523
29 -0.012872673734572
30 0.002214312983486
31 -0.11086372291808
32 -0.24334263249684
33 -0.20379540620839
34 0.10274481157531
35 0.13700672437638
36 0.057924531935299
37 -0.051511299176172
38 0.000186924135097
39 -0.041830934120184
40 -0.015568728259105
41 0.024696129972888
42 -0.009127401713783
43 -0.003429499946425
44 -0.015716941088306
45 -0.009781968288755
46 0.10526364319486
47 0.23122640709481
48 0.19265177844895
49 0.098272362034836
50 0.13840787136257
51 -0.064344086080221
52 -0.049120169779514
53 -0.001523750069656
54 0.041262293843377
55 0.014812955716110
56 -0.025315478948785
57 0.010502523232675
58 0.004073451200908
59 -0.015918475810956
60 -0.008761190204532
 Sym=      9.1
 Ene=      -1.0271
 Spin= Alpha
 Occup=    1.000000
1 0.067044176768433
2 0.14042015093186
3 0.16454107949642
4 -0.16076253266967
5 -0.15107460326133
6 -0.20087062314792
7 0.064919758769541
8 0.058707336710853
9 0.087454198574282
10 0.000501082409583
11 -0.001367461850173
12 0.000866379440591
13 -0.020980379998404
14 -0.025950591874264
15 -0.023932316944505
16 0.065469365474340
17 0.13684755579975
18 0.16122187040861
19 0.15987957684661
20 0.14442115525808
21 -0.19844385855387
22 -0.064789315368966
23 -0.055510987686161
24 0.086167740945560
25 0.000204745274972
26 -0.000475897118729
27 0.000271151843757
28 -0.020336840461960
29 0.026093572913907
30 0.023824870882629
31 0.069547124868697
32 0.14613180692206
33 0.17010723865753
34 0.17784922224809
35 -0.15627661205814
36 0.19510306431850
37 -0.073470886582364
38 0.060842090112589
39 -0.083697414381068
40 -0.000023234127356
41 -0.001107738332470
42 0.001130972459827
43 0.020905468454326
44 -0.026768749762999
45 0.024534633373305
46 0.071368526495375
47 0.15050161192216
48 0.17455458977820
49 -0.17385742393654
50 0.15860734991130
51 0.20004672159948
52 0.071025831689609
53 -0.060964213300178
54 -0.086404428479881
55 0.000243375911510
56 -0.001724779474604
57 0.001481403563094
58 0.021089047843131
59 0.026802643278368
60 -0.024572143425376
 Sym=     10.1
 Ene=      -0.9350
 Spin= Alpha
 Occup=    1.000000
1 -0.034214560590881
2 -0.084522793050096
3 -0.048679583744779
4 -0.12798406127293
5 0.047122812401773
6 0.21748986013435
7 0.069836144783852
8 -0.025661567187093
9 -0.13447965286508
10 -0.005771538144718
11 0.007176181337476
12 -0.001404643192757
13 -0.022040449613118
14 0.004800691978962
15 0.020864383983379
16 -0.026501445033963
17 -0.065692805228969
18 -0.037574604972752
19 0.092154120934329
20 0.003636771499477
21 0.19643762173356
22 -0.054429137984681
23 -0.000438358391300
24 -0.12203404267126
25 0.001108433556093
26 0.000637806229045
27 -0.001746239785138
28 -0.022004663934683
29 -0.005781360207579
30 -0.018239601908715
31 0.052070969714035
32 0.12583399239590
33 0.081072673852205
34 0.29581153666112
35 -0.16098419068391
36 -0.22127849080782
37 -0.16979477762147
38 0.091444475432522
39 0.11732293236036
40 -0.010675417210619
41 -0.008327479615833
42 0.019002896826452
43 0.032490170594370
44 0.002434295664621
45 -0.017921124122574
46 0.026645294345393
47 0.063166502434493
48 0.045515039242191
49 -0.28662141902390
50 0.12483353234555
51 -0.29752248600637
52 0.15850257035844
53 -0.067710234756512
54 0.16041250229896
55 -0.015028668614120
56 -0.007832841894403
57 0.022861510508522
58 0.032892363118291
59 -0.005024227901349
60 0.021363288603711
 Sym=     11.1
 Ene=      -0.9258
 Spin= Alpha
 Occup=    1.000000
1 0.099722909395541
2 0.24273163537364
3 0.15381223334541
4 -0.039825712185640
5 -0.10743259583309
6 -0.30891148458082
7 0.040051166063575
8 0.072393901817799
9 0.17393548250470
10 0.015021636613441
11 0.003122709261100
12 -0.018144345874541
13 0.001060582871357
14 -0.009248253283063
15 -0.011005307134388
16 -0.11944213757142
17 -0.29005628739027
18 -0.18553618480300
19 -0.085600133615053
20 -0.15044087686156
21 0.30515925644811
22 0.066028206544910
23 0.096068714945981
24 -0.17688508910568
25 -0.012232515389744
26 -0.000237996556883
27 0.012470511946627
28 0.001584516059658
29 -0.009972874086253
30 -0.011897604861877
31 -0.015009651158899
32 -0.036180833963872
33 -0.023139806775142
34 0.18992110024181
35 0.17464816983434
36 -0.074859854370512
37 -0.088580988921603
38 -0.086022438474430
39 0.040451657260318
40 -0.030370199239791
41 0.024103193194260
42 0.006267006045531
43 0.001907521370672
44 -0.006013856918316
45 -0.010905168632571
46 0.031828932668554
47 0.077533538916700
48 0.047762996870625
49 0.14190956082651
50 0.21807909857868
51 0.050034440181982
52 -0.061166443731145
53 -0.11072243547537
54 -0.031635077910469
55 0.027350083231662
56 -0.027713636338861
57 0.000363553107199
58 0.001060316919226
59 -0.006340988084706
60 -0.009703353442975
 Sym=     12.1
 Ene=      -0.9227
 Spin= Alpha
 Occup=    1.000000
1 0.035616245828880
2 0.086152001559119
3 0.057282906306648
4 -0.23817441556576
5 0.12898521678532
6 -0.065686665697145
7 0.12201649010369
8 -0.055184298440038
9 0.040688969033044
10 -0.027372740017455
11 0.026541280360935
12 0.000831459656521
13 -0.001660215409752
14 -0.011830343883140
15 0.005465858386020
16 -0.007799914190088
17 -0.019031549829791
18 -0.015513519913205
19 -0.16773702600167
20 0.17808550866407
21 0.056210006509468
22 0.081991942655985
23 -0.083376880507295
24 -0.027155086708828
25 0.022833003378032
26 -0.030362606463003
27 0.007529603084971
28 -0.000284789978632
29 -0.009004880708051
30 0.006525431127415
31 0.092255399210574
32 0.22443308651980
33 0.14049359725144
34 0.10208535415124
35 -0.009677361823992
36 0.32871651748269
37 -0.070390739675588
38 0.023846861322338
39 -0.18409816990095
40 0.005891822575134
41 0.016060622519368
42 -0.021952445094502
43 -0.003802950801333
44 -0.013873836707326
45 0.008785674025572
46 -0.11906829197179
47 -0.29065665857172
48 -0.17740614029683
49 0.17699118407911
50 -0.10162446585170
51 -0.28010738203825
52 -0.11425922551484
53 0.076627178878317
54 0.16548074713384
55 -0.001025441740928
56 -0.009726737583046
57 0.010752179323974
58 -0.003658367846986
59 -0.011943668381658
60 0.008315620274332
 Sym=     13.1
 Ene=      -0.9167
 Spin= Alpha
 Occup=    1.000000
1 0.083743825851282
2 0.20241163291916
3 0.12611288102997
4 -0.27501229122787
5 -0.23367066872734
6 0.13556074736611
7 0.16338528238950
8 0.13329041674625
9 -0.056284052651206
10 -0.010584346191099
11 -0.016951532971556
12 0.027535879162655
13 -0.024885565775579
14 0.000108852949770
15 0.008486707327363
16 0.068536508112297
17 0.16519156965191
18 0.10489937762929
19 0.32158683153768
20 0.16650849573620
21 0.17690816697801
22 -0.18195210116564
23 -0.097028694290113
24 -0.080876973210855
25 -0.020312006098970
26 -0.009414901312255
27 0.029726907411225
28 -0.024950219316770
29 0.001539644157975
30 -0.011621270854006
31 -0.085054035031419
32 -0.20868275200242
33 -0.12040773852321
34 -0.089041519108905
35 0.18675233320068
36 -0.096513111178416
37 0.057122464518204
38 -0.11002941872412
39 0.079969787024889
40 0.003937581041242
41 0.012994929790837
42 -0.016932510832079
43 0.002279540430233
44 0.002724365506661
45 -0.012459371005668
46 -0.051422231535144
47 -0.12653444254775
48 -0.071893217648210
49 0.080413533224506
50 -0.13221021858548
51 0.001884570182585
52 -0.043601207457119
53 0.075539214340697
54 0.022752837206786
55 0.010646335152756
56 0.011888819529744
57 -0.022535154682500
58 0.001928743530249
59 -0.000501910127766
60 0.007542849402557
 Sym=     14.1
 Ene=      -0.8954
 Spin= Alpha
 Occup=    1.000000
1 0.009136881534473
2 0.021439351014132
3 0.014362255459832
4 0.15708519010127
5 -0.28684318135762
6 0.083085788601846
7 -0.091902099685290
8 0.16791810098789
9 -0.047090258204317
10 0.007308092238328
11 -0.012422102917245
12 0.005114010678917
13 -0.011412916425853
14 0.027605348268606
15 -0.019604083584847
16 0.007454181084297
17 0.016790443883146
18 0.014141265380473
19 -0.16608184191508
20 0.29630712381373
21 0.086509472048510
22 0.097359396803183
23 -0.17172972910377
24 -0.050182402375316
25 0.008379718505336
26 -0.013844710170470
27 0.005464991665134
28 -0.011486530088446
29 -0.028028457785456
30 0.020071323764470
31 0.004072951692947
32 0.008871802789587
33 0.009223279482246
34 -0.18150625886648
35 -0.27816034251297
36 -0.070752491150752
37 0.10599612454043
38 0.16208957296430
39 0.043254076816029
40 0.008417345469051
41 -0.010531829618006
42 0.002114484148955
43 0.010245110088134
44 0.027808804283677
45 0.020865808893644
46 -0.000349649190504
47 -0.002500706636793
48 0.005857035666934
49 0.18897442207311
50 0.27785591956173
51 -0.089458198129938
52 -0.11201592720896
53 -0.15992452998292
54 0.055190318059145
55 0.008596884006920
56 -0.012094700290527
57 0.003497816283607
58 0.009978349569922
59 -0.028528725474738
60 -0.020162455615743
 Sym=     15.1
 Ene=      -0.1839