[Molden Format]
[Molpro variables]
_NUMVAR=  786.0000000000000    
_AVOGAD= 0.6022136736000000E+24
_BOLTZ= 0.1380658000000000E-22
_CLIGHT=  29979245800.00000    
_EV2006= 0.3674930886769165E-01
_EV= 0.3674932534394180E-01
_ENULL= 0.8854187817000000E-11
_KJOULE= 0.3808798324128737E-03
_KJOULE/MOL= 0.3808798324128737E-03
_CM= 0.4556335267302901E-05
_CM-1= 0.4556335267302901E-05
_DEB2SI= 0.3335641000000000E-29
_AMU2AU=  1822.888390000000    
_KCAL= 0.1593601117815568E-02
_KCAL/MOL= 0.1593601117815568E-02
_KELVIN2006= 0.3166828861084835E-05
_KELVIN= 0.3166814820820034E-05
_JOULE= 0.4359748200000000E-17
_HERTZ2006= 0.1519829850815779E-15
_HERTZ= 0.1519829846011223E-15
_HZ2006= 0.1519829850815779E-15
_HZ= 0.1519829846011223E-15
_JPCAL=  4.184000000000000    
_PLANCK= 0.6626075540000000E-33
_TOA2006= 0.5291772490000000    
_TOA= 0.5291772090000000    
_TOANG2006= 0.5291772490000000    
_TOANG= 0.5291772090000000    
_TORAD= 0.1745329251994330E-01
_TOCM=  219474.6306700000    
_TODEBYE=  2.541580000000000    
_TOEV2006=  27.21139610000000    
_TOE= 0.4803242000000000E-09
_TOEV=  27.21138390000000    
_TOHERTZ2006=  6579683899900000.    
_TOHERTZ=  6579683920700000.    
_TOHZ2006=  6579683899900000.    
_TOHZ=  6579683920700000.    
_TOK2006=  315773.3000000000    
_TOK=  315774.7000000000    
_TOKCAL=  627.5096000000000    
_TOKELVIN2006=  315773.3000000000    
_TOKELVIN=  315774.7000000000    
_TOKJ=  2625.500000000000    
_TOKJOULE=  2625.500000000000    
_TOKG= 0.1660565586000000E-26
_ANG2006=  1.889725988578923    
_ANG=  1.889726131421507    
_ANGSTROM2006=  1.889725988578923    
_ANGSTROM=  1.889726131421507    
_RPAREF=  0.000000000000000    
_RPADISS=  0.000000000000000    
_IGNORE_UNDEF=  2.000000000000000    
_STRICTCHECK=  0.000000000000000    
_SEW_ONEEL=  0.000000000000000    
_CPPDONE=FALSE
_DKROLL_DONE=  0.000000000000000    
_FOCKDONE=TRUE
_GRADONE=FALSE
_HESSDONE=FALSE
_INTDONE=TRUE
_SCFDONE=TRUE
_MODUL_BLOCK=FALSE
_MODUL_CUDA=FALSE
_MODUL_SLATER=FALSE
_MODUL_MRCC=FALSE
_MODUL_NBO6=FALSE
_MODUL_NECI=TRUE
_MODUL_AIMS=TRUE
_MRCC_EXEC=
_FITC_AO_SAVED=FALSE
_FITC_MO_SAVED=FALSE
_SHARED_FS=TRUE
_LSTYP=SEWARD
_INTYP=INTS
_GEOMTYP=ZMAT
_GRADTYP=ALASKA
_DIRECT=FALSE
_DKHO= -1.000000000000000    
_SYNCM=  0.000000000000000    
_BASIS=DEF2-SVP
_ZORIENT=  1.000000000000000    
_NELEC=  27.00000000000000    
!SPIN=  1.000000000000000    
_QSDSTEP=  0.000000000000000    
_QSDIRC=  0.000000000000000    
_PROGRAM=UHF-SCF
_CPUSTEP= 0.9700000000000001    
_SYSSTEP= 0.1999999999999997    
_WALLSTEP=  1.420000000000000    
!DFSCF=  0.000000000000000    
!SCSGRD=  0.000000000000000    
_BASINP=  610.0000000000000    
_CPUTOT=  1.590000000000000    
_CPUSORT= 0.1500000000000000    
_SYSSORT=  2.830000000000000    
_WALLSORT=  3.019999999552965    
_DMX=-0.2892199537994196E-02
_DMY= 0.8128609303945489E-02
_DMZ= 0.4516979494568613E-02
_DMX_SCF=-0.2892199537994196E-02
_DMY_SCF= 0.8128609303945489E-02
_DMZ_SCF= 0.4516979494568613E-02
_EHOMO=-0.8841925936462958    
_ELUMO=-0.4569861386796688    
_ENERGY= -216.8138885037876    
_ENUC=  105.7779401022931    
_GRADEXFAC=  9999.000000000000    
_GRADMETHOD=  3.000000000000000    
_NMRMETHOD=  0.000000000000000    
!GRID_FREEZE= -1.000000000000000    
_ITERATIONS=  41.00000000000000    
_LASTNELEC=  27.00000000000000    
_LASTSPIN=  1.000000000000000    
_LASTSYM=  1.000000000000000    
_MPP_PROG=  0.000000000000000    
_NPROC_MPP=  1.000000000000000    
_NPROC_MPPX=  1.000000000000000    
_NPROC_SMP=  1.000000000000000    
_NUMSTEP=  0.000000000000000    
_ORBITAL=  2200.200000000000    
_PI=  3.141592653589793    
_SEIG_MIN= 0.7342930502941786E-02
_SEWPROP=TRUE
_SSQUARED= 0.7855099733623181    
_STATUS=  1.000000000000000    
_SYSTOT=  3.410000000000000    
_VERSION=  2012001.000000000    
_WALLTOT=  5.360000000000000    
_DATE=03-Jun-15
_LASTORB=UHFNAT
_MACHINE=Linux-3.13.0-32-generic/kbob-G41MT-S2(x86_64) 64 bit serial version
_OUTPUT=/home/kbob/git/molden2qmc/test/N4/MOLPRO/UHF/SVP/N4.xml
_PGROUP=C1
_TIME=18:57:17
_LIBMOL=/usr/local/molpro/molpros_2012_1_Linux_x86_64_i8/lib/
!VIBCNT=  0.000000000000000    
!RGHFCNT=  0.000000000000000    
!SURFREC=  0.000000000000000    
!POLYREC=  0.000000000000000    
!DIPREC=  0.000000000000000    
!VSCFREC=  0.000000000000000    
!VCIREC=  0.000000000000000    
!PVCIREC=  0.000000000000000    
!VMP2REC=  0.000000000000000    
!VMCSCFREC=  0.000000000000000    
!VMRCIREC=  0.000000000000000    
!VIBINFO=  0.000000000000000    
!GAREC=  0.000000000000000    
!SCFORB=  22002.00000000000    
!UNO_OCC=  14.00000000000000    
!UNO_CLOSED=  13.00000000000000    
!NEWMOL= -1.000000000000000    
!NEWSYM= -1.000000000000000    
_SLFILES=slscratch
_NGSSTO=  9.000000000000000    
_SIN=SIN
_COS=COS
_TAN=TAN
_ACOS=ACOS
_ASIN=ASIN
_ATAN=ATAN
_COSH=COSH
_SINH=SINH
_TANH=TANH
_ABS=ABS
_MOD=MOD
_ERF=ERF
_REFC=REFC
_ERFC=ERFC
_HYPOT=HYPOT
_J0=J0
_J1=J1
_JN=JN
_GAMMA=GAMMA
_LGAMMA=LGAMMA
_Y0=Y0
_Y1=Y1
_YN=YN
_EXP=EXP
_LOG=LOG
_LOG10=LOG10
_SQRT=SQRT
_INT=INT
_NINT=NINT
_MAX=MAX
_MIN=MIN
_COSMO=  0.000000000000000    
_COSMOIT=  0.000000000000000    
_COSMOES=  0.000000000000000    
_COSMOEDS=  0.000000000000000    
_COSMOEC=  0.000000000000000    
_COSMOEDCORR=  0.000000000000000    
_FEPSI=  1.000000000000000    
_SL_IsMM=  0.000000000000000    
_SL_NSYM=  1.000000000000000    
_SL_System_BitSw=  0.000000000000000    
_SL_Unique_atoms=  0.000000000000000    
_SL_GRAD=  0.000000000000000    
_SL_MAXUPD_Hess=  5.000000000000000    
_SL_N_PRINT_COD=  5.000000000000000    
_SL_PRINT_CODES=  0.000000000000000    
_SL_BasType=  0.000000000000000    
_SL_Energy_Pred=  0.000000000000000    
_SL_New_Coords=  0.000000000000000    
_SL_Total_Nuclea=  0.000000000000000    
_SL_Highest_Mltp=  0.000000000000000    
_SL_Ref_Geom=  0.000000000000000    
_SL_Symmetry_ope=  1.000000000000000    
_SL_agrad=  0.000000000000000    
_SL_GrdMax=  0.000000000000000    
_SL_GrdNorm=  0.000000000000000    
_SL_GrdRMS=  0.000000000000000    
!LATTICE= -1.000000000000000    
!NEWLATTICE=  0.000000000000000    
!LATGRAD_VAR=FALSE
!SEW_LATTICE=  1.000000000000000    
!LOCAL=  0.000000000000000    
!SAVEDOM= -1.000000000000000    
!RESTDOM= -1.000000000000000    
!SAVEDOM_HF= -1.000000000000000    
!RESTDOM_HF= -1.000000000000000    
!HESSREC=  0.000000000000000    
!FREQREC=  0.000000000000000    
!NMODREC=  0.000000000000000    
!GTASKS=  0.000000000000000    
!HTASKS=  0.000000000000000    
!THRCHG= 0.1000000000000000    
!DEBUG= -1.000000000000000    
!CFIT_CPHF=  0.000000000000000    
!RDOMAUX_CPHF=  3.000000000000000    
!THRAO_CPHF= 0.1000000000000000E-09
!THRMO_CPHF= 0.1000000000000000E-08
!THROV_CPHF= 0.1000000000000000E-11
!THRSW_CPHF= 0.1000000000000000E-09
!THRPROD_CPHF= 0.1000000000000000E-08
!THRAOPR_CPHF= 0.1000000000000000E-11
!CFIT_SCFGRD=  0.000000000000000    
!RDOMAUX_SCFGRD=  5.000000000000000    
!THRAO_SCFGRD= 0.1000000000000000E-09
!THRMO_SCFGRD= 0.1000000000000000E-08
!THROV_SCFGRD= 0.1000000000000000E-11
!THRSW_SCFGRD= 0.1000000000000000E-09
!THRPROD_SCFGRD= 0.1000000000000000E-08
!THRAOPR_SCFGRD= 0.1000000000000000E-11
!LOCFIT_SCF=  0.000000000000000    
!LOCFIT_MP2= -1.000000000000000    
_RIDOM=  0.000000000000000    
!CC2_METHOD=  0.000000000000000    
_BASIS2006=FALSE
_SVDDEL= -1.000000000000000    
_SVDDELA= -1.000000000000000    
_SVDDELP= -1.000000000000000    
_SVDDELF= -1.000000000000000    
_SVDDELS= -1.000000000000000    
_SVDDEL_ABS= -1.000000000000000    
_SVDDELA_ABS= -1.000000000000000    
_SVDDELP_ABS= -1.000000000000000    
_SVDDELF_ABS= -1.000000000000000    
_SVDDELS_ABS= -1.000000000000000    
_MAXBASIS=  0.000000000000000    
!OPT_CONICAL=  0.000000000000000    
!CLEARSP_JGRID=  0.000000000000000    
_4EXT_NDISKS=  1.000000000000000    
!ZMP=  0.000000000000000    
_MAXIT_ZMP=  500.0000000000000    
_MAXDIS_ZMP=  100.0000000000000    
_ACCU_ZMP=  14.00000000000000    
_SHIFTA_ZMP= -100.0000000000000    
!EMBEDFLAG=  1.000000000000000    
!EMBED=FALSE
!EMBED_F12=FALSE
!EMBEDNUC=  0.000000000000000    
_EMBEDENERGY=  0.000000000000000    
_KSPACETIME=  0.000000000000000    
_RSPACETIME=  0.000000000000000    
!EMBED_DFC=FALSE
!NUM_VOIDS=  0.000000000000000    
_IBODY=  0.000000000000000    
_EMBE_TOTAL=  0.000000000000000    
_EMBE_HF=  0.000000000000000    
_EMBE_CORR=  0.000000000000000    
!EDFT=  0.000000000000000    
_IFASTLATGRAD=  0.000000000000000    
_SINDEX=  0.000000000000000    
GEOMTYP=XYZ
CHARGE=  1.000000000000000    
GX1= 0.5200000000000000    
GY1= 0.5300000000000000    
GZ1= 0.5100000000000000    
GX2=-0.5200000000000000    
GY2=-0.5200000000000000    
GZ2= 0.5200000000000000    
GX3=-0.5200000000000000    
GY3= 0.5200000000000000    
GZ3=-0.5200000000000000    
GX4= 0.5200000000000000    
GY4=-0.5200000000000000    
GZ4=-0.5200000000000000    
[Atoms] Angs
N     1    7         0.5200000000        0.5300000000        0.5100000000
N     2    7        -0.5200000000       -0.5200000000        0.5200000000
N     3    7        -0.5200000000        0.5200000000       -0.5200000000
N     4    7         0.5200000000       -0.5200000000       -0.5200000000
[GTO]
  1 0
 s    5  1.00
  0.1712841585D+04 -0.5447799580D-02
  0.2576481268D+03 -0.4062717463D-01
  0.5845824585D+02 -0.1811196225D+00
  0.1619836791D+02 -0.4684397556D+00
  0.5005260081D+01 -0.4461684629D+00
 s    1  1.00
  0.5873185657D+00  0.1000000000D+01
 s    1  1.00
  0.1876459225D+00  0.1000000000D+01
 p    3  1.00
  0.1357147023D+02 -0.5884811697D-01
  0.2925737287D+01 -0.3202462476D+00
  0.7992775075D+00 -0.7532822652D+00
 p    1  1.00
  0.2195434803D+00  0.1000000000D+01
 d    1  1.00
  0.1000000000D+01  0.1000000000D+01
  
  2 0
 s    5  1.00
  0.1712841585D+04 -0.5447799580D-02
  0.2576481268D+03 -0.4062717463D-01
  0.5845824585D+02 -0.1811196225D+00
  0.1619836791D+02 -0.4684397556D+00
  0.5005260081D+01 -0.4461684629D+00
 s    1  1.00
  0.5873185657D+00  0.1000000000D+01
 s    1  1.00
  0.1876459225D+00  0.1000000000D+01
 p    3  1.00
  0.1357147023D+02 -0.5884811697D-01
  0.2925737287D+01 -0.3202462476D+00
  0.7992775075D+00 -0.7532822652D+00
 p    1  1.00
  0.2195434803D+00  0.1000000000D+01
 d    1  1.00
  0.1000000000D+01  0.1000000000D+01
  
  3 0
 s    5  1.00
  0.1712841585D+04 -0.5447799580D-02
  0.2576481268D+03 -0.4062717463D-01
  0.5845824585D+02 -0.1811196225D+00
  0.1619836791D+02 -0.4684397556D+00
  0.5005260081D+01 -0.4461684629D+00
 s    1  1.00
  0.5873185657D+00  0.1000000000D+01
 s    1  1.00
  0.1876459225D+00  0.1000000000D+01
 p    3  1.00
  0.1357147023D+02 -0.5884811697D-01
  0.2925737287D+01 -0.3202462476D+00
  0.7992775075D+00 -0.7532822652D+00
 p    1  1.00
  0.2195434803D+00  0.1000000000D+01
 d    1  1.00
  0.1000000000D+01  0.1000000000D+01
  
  4 0
 s    5  1.00
  0.1712841585D+04 -0.5447799580D-02
  0.2576481268D+03 -0.4062717463D-01
  0.5845824585D+02 -0.1811196225D+00
  0.1619836791D+02 -0.4684397556D+00
  0.5005260081D+01 -0.4461684629D+00
 s    1  1.00
  0.5873185657D+00  0.1000000000D+01
 s    1  1.00
  0.1876459225D+00  0.1000000000D+01
 p    3  1.00
  0.1357147023D+02 -0.5884811697D-01
  0.2925737287D+01 -0.3202462476D+00
  0.7992775075D+00 -0.7532822652D+00
 p    1  1.00
  0.2195434803D+00  0.1000000000D+01
 d    1  1.00
  0.1000000000D+01  0.1000000000D+01
 
 
[MO]
 Sym=      1.1
 Ene=     -16.1155
  Spin= Beta
 Occup=    1.000000
1 0.072356270788377
2 -0.002735822700221
3 -0.003184668932243
4 -0.000325130659859
5 -0.000176562857188
6 -0.000111949153887
7 -0.000954612500774
8 0.000881109988440
9 0.001059839123936
10 -0.000366386732406
11 0.000140821434844
12 0.000225565297562
13 0.000157519409418
14 0.000202593500595
15 0.000787344115012
16 0.072640271233494
17 -0.002743251102748
18 -0.003244415996338
19 0.000184596782661
20 0.000295587703992
21 -0.000142379749666
22 -0.000901434257494
23 0.000938735618461
24 0.001092415522556
25 0.000145457314628
26 -0.000379150892273
27 0.000233693577645
28 0.000164861302125
29 -0.000761653493020
30 -0.000226004397270
31 0.16458180559573
32 -0.005699514512541
33 -0.000851955884452
34 0.000338828519043
35 -0.000364357377421
36 0.000575224941467
37 -0.000524295851629
38 0.000545098407157
39 0.001490832471427
40 0.000210199000407
41 0.000146783445073
42 -0.000356982445481
43 -0.000783319463512
44 0.000074752213380
45 -0.000105773888511
46 0.97221074079327
47 -0.031632377737049
48 0.019014661732030
49 -0.002309864042165
50 0.002341870666274
51 0.002313867984859
52 -0.003999974921549
53 0.004012338677597
54 0.004190520954857
55 0.000054848536013
56 -0.000246279040359
57 0.000191430504347
58 -0.000091880940170
59 0.000373189823422
60 -0.000147333455768
 Sym=      2.1
 Ene=     -16.1148
  Spin= Beta
 Occup=    1.000000
1 -0.10201890682863
2 0.003605000449063
3 0.001176535095132
4 0.000188332283902
5 0.000376006864048
6 0.000213435837266
7 -0.001068390738487
8 0.001574709562335
9 -0.000534704582781
10 -0.000300168516308
11 0.000472007055005
12 -0.000171838538697
13 -0.000123104411635
14 -0.000730085454419
15 0.000041840434301
16 -0.051694048273753
17 0.001955194226836
18 0.002441579330381
19 -0.000274793152049
20 -0.000081548570745
21 0.000086814213563
22 -0.001267607981417
23 0.001366039142332
24 -0.000697689657811
25 0.000432876575655
26 -0.000284490121414
27 -0.000148386454241
28 -0.000146578508401
29 -0.000052883872384
30 0.000754104340720
31 -0.96893861490686
32 0.031494008186346
33 -0.020387583924590
34 -0.002323686408580
35 0.002326656141692
36 -0.002291092996483
37 -0.004404094035050
38 0.004502954991533
39 -0.003903373675995
40 -0.000012238225446
41 0.000301365629655
42 -0.000289127404209
43 -0.000157302526312
44 0.000377246898522
45 -0.000201553317052
46 0.17530063442647
47 -0.005352055029661
48 0.008085149597737
49 -0.000463548605309
50 0.000449122793158
51 0.000230712090909
52 -0.001996756544786
53 0.002131626993137
54 0.000043706827691
55 -0.000175203341599
56 -0.000248486661517
57 0.000423690003116
58 0.000789430567550
59 0.000213858337438
60 -0.000205110737804
 Sym=      3.1
 Ene=     -16.1129
  Spin= Beta
 Occup=    1.000000
1 -0.97103535835530
2 0.031603265634707
3 -0.020458014463023
4 0.002324090884776
5 0.002329923086264
6 0.002289452556105
7 0.004182301351922
8 0.004087131958205
9 0.004561954004640
10 -0.000032569555456
11 0.000157023164999
12 -0.000124453609543
13 -0.000004681192963
14 0.000503592143307
15 0.000196759039842
16 -0.14534824295862
17 0.004959702166111
18 0.000058385086388
19 -0.000292256092794
20 -0.000326345511201
21 0.000520409667027
22 0.000655573400902
23 0.000558427793129
24 0.001783990635516
25 -0.000240520205529
26 -0.000173281414580
27 0.000413801620108
28 -0.000721843857928
29 -0.000021481245744
30 -0.000036138084869
31 0.12117569003178
32 -0.003586424375533
33 0.006620636391372
34 0.000281884890842
35 -0.000157213101535
36 0.000356032827507
37 0.001564517633077
38 0.000356928236374
39 0.002012665753062
40 -0.000130468820153
41 0.000379253798585
42 -0.000248784978432
43 0.000059827243878
44 -0.000853418293278
45 0.000235459324459
46 0.062448176802676
47 -0.001720332153110
48 0.005223163318690
49 0.000022845810078
50 0.000136585417979
51 0.000240079423806
52 0.000623804635797
53 0.001280843704507
54 0.001814315643323
55 0.000412917299102
56 -0.000135579167853
57 -0.000277338131249
58 0.000009462232591
59 0.000225496741345
60 -0.000784378289069
 Sym=      4.1
 Ene=     -16.1123
  Spin= Beta
 Occup=    1.000000
1 0.15516936370490
2 -0.004784687172317
3 0.006625082156148
4 -0.000415974065071
5 -0.000389398339531
6 -0.000183084639453
7 -0.001911648580174
8 -0.001925329155385
9 0.000411970027430
10 -0.000217584413004
11 -0.000250034794037
12 0.000467619207041
13 -0.000759448417206
14 -0.000107235026435
15 -0.000057368923509
16 -0.97651110303119
17 0.031669518331273
18 -0.021289334688094
19 -0.002319755027427
20 -0.002330525889025
21 0.002269537963633
22 -0.004472870312885
23 -0.004474296727785
24 0.004229573379500
25 0.000025250640661
26 0.000239332324626
27 -0.000264582965288
28 0.000198220461507
29 -0.000447483393273
30 -0.000235790687502
31 0.045355721611662
32 -0.001236571275108
33 0.003924394862518
34 -0.000061747228715
35 -0.000135072877478
36 0.000171524824526
37 -0.001019961493453
38 -0.001555547650038
39 0.001296424735557
40 0.000464960245827
41 -0.000263366295462
42 -0.000201593950365
43 0.000033044239598
44 0.000014087297936
45 0.000761672977656
46 0.053615408489786
47 -0.001485163298967
48 0.004125625913295
49 -0.000156590331170
50 -0.000001709161512
51 0.000158574562944
52 -0.001591425584469
53 -0.000988740888050
54 0.001341786103581
55 -0.000255014100374
56 0.000441014631404
57 -0.000186000531030
58 0.000052563679791
59 0.000775708191337
60 0.000010249862389
 Sym=      5.1
 Ene=      -2.0192
  Spin= Beta
 Occup=    1.000000
1 0.12908165393287
2 0.26417801677886
3 0.063486352954813
4 0.083521206071920
5 0.085688814463293
6 0.080984442289090
7 -0.023441359693111
8 -0.023382749794918
9 -0.023680397044385
10 -0.000036570395203
11 0.002281259882538
12 -0.002244689487335
13 0.014552281238146
14 0.016559991765714
15 0.014645505434348
16 0.12818020210065
17 0.26226760893895
18 0.062931904370190
19 -0.082182766569419
20 -0.084675580194142
21 0.081403588837676
22 0.023277997495179
23 0.022760808872902
24 -0.023818886549291
25 -0.000076788732172
26 0.001959497755667
27 -0.001882709023495
28 0.014146995397014
29 -0.016477898879453
30 -0.014927299926318
31 0.12921598583787
32 0.26456611096816
33 0.061764791131912
34 -0.084415695836257
35 0.085749744344374
36 -0.082420041309604
37 0.023391436912895
38 -0.022876733598426
39 0.023344192688139
40 -0.000228291366805
41 0.002089029176075
42 -0.001860737809269
43 -0.013997525826364
44 0.017214245846637
45 -0.015377780336777
46 0.12819451722192
47 0.26276242529774
48 0.059533297468054
49 0.083417332526681
50 -0.086797310821266
51 -0.081229747382961
52 -0.022636819070480
53 0.022433742918662
54 0.022658811597429
55 -0.000211720679292
56 0.002613159472437
57 -0.002401438793145
58 -0.014136413137669
59 -0.017173369176391
60 0.015330796807520
 Sym=      6.1
 Ene=      -1.3774
  Spin= Beta
 Occup=    1.000000
1 -0.15021967163926
2 -0.32584718811641
3 -0.28140125728148
4 -0.061068103512231
5 0.11741286179397
6 -0.086920743006841
7 0.054556773088991
8 0.014697747654529
9 0.057308439972242
10 -0.007763682409998
11 0.018568408625031
12 -0.010804726215032
13 0.006487138728561
14 -0.018067315330431
15 0.001838375525435
16 0.15528530384604
17 0.33672769318316
18 0.29035046060056
19 -0.062873648192662
20 0.11231241504420
21 0.079930330515235
22 0.056121962481962
23 0.017169404485268
24 -0.057625306998233
25 0.008003634079430
26 -0.017943739562909
27 0.009940105483479
28 -0.005875557216112
29 -0.017698512757604
30 0.001981747349765
31 -0.11120865302174
32 -0.24049801683600
33 -0.21219551471785
34 0.10420172588411
35 0.14250289310706
36 0.057921043090213
37 -0.055356588542231
38 -0.001363210506903
39 -0.041975000606457
40 -0.015357709575955
41 0.022752868317282
42 -0.007395158741328
43 -0.004913453248524
44 -0.018761163156850
45 -0.007398462025854
46 0.10751086539011
47 0.23238260429102
48 0.20556676392412
49 0.10027552435367
50 0.14342074955170
51 -0.063194266643388
52 -0.053580968908194
53 -0.002275114765906
54 0.042300371894446
55 0.014946611008006
56 -0.023035050183548
57 0.008088439175542
58 0.004976143482434
59 -0.018898514541068
60 -0.006750097371258
 Sym=      7.1
 Ene=      -1.3484
  Spin= Beta
 Occup=    1.000000
1 0.10921370426194
2 0.23969091615090
3 0.19963802190033
4 -0.13690041461097
5 0.10212635162197
6 0.046102533407358
7 0.006419049506260
8 -0.053849235409709
9 -0.033591709023911
10 -0.025446913980090
11 0.017482241819382
12 0.007964672160708
13 -0.004339096880278
14 -0.005119615936555
15 0.016492023648688
16 -0.11732079115753
17 -0.25728525269511
18 -0.21209903113899
19 -0.13378155153446
20 0.10705471237647
21 -0.042340474518400
22 0.004777452396744
23 -0.056948309822056
24 0.034487515622572
25 0.024590222420034
26 -0.018087475119930
27 -0.006502747300103
28 0.003705277468445
29 -0.005338651368025
30 0.016777100873473
31 -0.15159317544197
32 -0.33077377098204
33 -0.28510717563035
34 -0.10358375533974
35 -0.062956311907113
36 0.068943213654494
37 -0.016254206032354
38 0.057975035028763
39 -0.049459915526907
40 0.022301105063798
41 -0.010824404270267
42 -0.011476700793532
43 -0.006596628545806
44 -0.001302079836133
45 0.015730384095580
46 0.16119066802465
47 0.35261902092447
48 0.29897860772933
49 -0.10150893329934
50 -0.067439503337315
51 -0.059971681612691
52 -0.017526981956866
53 0.060969562905110
54 0.048016909916334
55 -0.021166483254926
56 0.012285319050530
57 0.008881164204395
58 0.005489691971743
59 -0.001421771508249
60 0.015334816490625
 Sym=      8.1
 Ene=      -1.3252
  Spin= Beta
 Occup=    1.000000
1 -0.14492642924244
2 -0.31869878255916
3 -0.26649154172441
4 -0.053850263037853
5 -0.079097353686242
6 0.11063291286788
7 0.044514904538309
8 0.057404352291009
9 0.007258875793687
10 -0.010892740161976
11 -0.015364345848050
12 0.026257086010026
13 -0.015401906847210
14 0.001695291297538
15 0.003949718992773
16 -0.13241830223698
17 -0.29129804554965
18 -0.24090539337583
19 0.061808953915890
20 0.076711941759573
21 0.11428923106255
22 -0.043349719274709
23 -0.052164299203228
24 0.003449106377859
25 -0.012331230163427
26 -0.014663935492042
27 0.026995165655469
28 -0.015796764691658
29 -0.001792828460197
30 -0.003886014243232
31 0.14347215600835
32 0.31739209500184
33 0.26037869300966
34 -0.048528316931628
35 0.077991871484064
36 0.11470396965434
37 0.041572468311435
38 -0.053825964837910
39 0.004605569344883
40 0.010099041250071
41 0.015582530509941
42 -0.025681571760012
43 -0.014271279687340
44 -0.001630202761143
45 0.002199398604080
46 0.13732832749470
47 0.30355918336594
48 0.24860884018525
49 0.058584459288025
50 -0.069010169494843
51 0.11088734404268
52 -0.041734448180105
53 0.050362066558663
54 0.005532232357757
55 0.012032484079772
56 0.014207657612899
57 -0.026240141692671
58 -0.014535814930273
59 0.000652051320381
60 -0.003597440548940
 Sym=      9.1
 Ene=      -1.0180
  Spin= Beta
 Occup=    1.000000
1 0.073631700176582
2 0.15563016182712
3 0.17561232453818
4 -0.17268310708892
5 -0.19474661033986
6 -0.15138163285669
7 0.072347860358909
8 0.083180547503092
9 0.061060510027996
10 0.000302213396850
11 -0.000480332326807
12 0.000178118929957
13 -0.024247680277075
14 -0.017861729878278
15 -0.022258902558009
16 0.075167275851550
17 0.15924521096948
18 0.17950970143235
19 0.17064449267959
20 0.19162915952336
21 -0.15498616493868
22 -0.071111314913112
23 -0.080992026557992
24 0.062469753879412
25 0.000440346677989
26 -0.000041314616247
27 -0.000399032061742
28 -0.023894474692973
29 0.018165711562113
30 0.022053874160474
31 0.068158147299278
32 0.14248166526985
33 0.16455399634555
34 0.16180575344302
35 -0.18795652212359
36 0.16447515715528
37 -0.066784927115947
38 0.080717067743061
39 -0.068723253101084
40 -0.000082452468833
41 0.000129290662348
42 -0.000046838193515
43 0.024234964845868
44 -0.018357234500959
45 0.021938809225831
46 0.066372131938182
47 0.13844152678895
48 0.16046297443598
49 -0.16291470943694
50 0.18852940985133
51 0.15827500477296
52 0.068024510061830
53 -0.081077077156808
54 -0.065657965532204
55 0.000176556039855
56 -0.000064760982609
57 -0.000111795057245
58 0.024049383911935
59 0.018150025441567
60 -0.021994254575204
 Sym=     10.1
 Ene=      -0.9103
  Spin= Beta
 Occup=    1.000000
1 0.069978337231238
2 0.16805943276644
3 0.11355874747497
4 -0.23901080219071
5 0.091263689751075
6 -0.18262559069866
7 0.13489970138553
8 -0.031122259931890
9 0.10595282924946
10 -0.017531994991714
11 0.029461747770760
12 -0.011929752779046
13 -0.000367946095266
14 -0.012529721135363
15 0.001013272350018
16 -0.065649712856288
17 -0.15797547884031
18 -0.10585149996235
19 -0.20967877100105
20 0.072695879789815
21 0.16631526634861
22 0.11852076833744
23 -0.020678273596553
24 -0.096157302883564
25 0.015913528528584
26 -0.028528559504115
27 0.012615030975531
28 0.001370077591533
29 -0.009371736273682
30 0.000223185540841
31 0.084091082790697
32 0.20272136805764
33 0.13141433823781
34 0.21317537956628
35 0.049403133721686
36 0.23811988733532
37 -0.12692058222342
38 -0.006224715573775
39 -0.13919161116969
40 -0.010680136586903
41 0.026982040740433
42 -0.016301904153530
43 -0.000452629185376
44 -0.012408422535276
45 0.001193702731295
46 -0.088493846423858
47 -0.21364848875168
48 -0.13726280909136
49 0.21027180789445
50 0.003305221602938
51 -0.21722952092264
52 -0.12624616125466
53 0.019993065773048
54 0.12875568983775
55 0.010461623114821
56 -0.024749303264374
57 0.014287680149553
58 -0.002122587335509
59 -0.009125982773380
60 0.003092138007653
 Sym=     11.1
 Ene=      -0.8953
  Spin= Beta
 Occup=    1.000000
1 -0.002113969109975
2 -0.002665882846243
3 -0.010800394510492
4 0.18974265748927
5 -0.25027374647812
6 0.093462195766888
7 -0.10813821134546
8 0.14658585356832
9 -0.052135754956804
10 0.007601516684636
11 -0.010777721314554
12 0.003176204629917
13 -0.006710758256603
14 0.027940975457293
15 -0.016810730882388
16 -0.006196740213394
17 -0.012819084264063
18 -0.016325850837407
19 -0.21628434631667
20 0.26926975838655
21 0.099820062246253
22 0.12281537739269
23 -0.15497958919301
24 -0.056651375686538
25 0.010341844938073
26 -0.014366121087891
27 0.004024276149817
28 -0.006760550248058
29 -0.029096931747904
30 0.017589754207295
31 0.003004560087772
32 0.009419485586401
33 -0.003022007763123
34 -0.18500734416499
35 -0.27127434559072
36 -0.079009855368617
37 0.10392307614145
38 0.15889280138472
39 0.043237897899846
40 0.008489807122369
41 -0.011658578247928
42 0.003168771125559
43 0.007504090029451
44 0.027638893178326
45 0.017737556967854
46 -0.008427617736242
47 -0.018872001246490
48 -0.016730799461503
49 0.20721119896533
50 0.26791674620804
51 -0.11397506271045
52 -0.11978506004109
53 -0.15350947996160
54 0.065274939944334
55 0.008545516209308
56 -0.014559350995566
57 0.006013834786258
58 0.007039851612455
59 -0.028778530437908
60 -0.016799384431280
 Sym=     12.1
 Ene=      -0.8921
  Spin= Beta
 Occup=    1.000000
1 0.073816885980276
2 0.17738389111154
3 0.10992173467583
4 0.032776262772748
5 -0.21068062460035
6 -0.21087786078757
7 0.007508011123079
8 0.12795402797984
9 0.12402856427745
10 0.027595372161081
11 -0.009087380601493
12 -0.018507991559588
13 0.000516084107294
14 -0.001215308628810
15 -0.013221593740100
16 -0.087579404454780
17 -0.21120466074717
18 -0.12821013279905
19 -0.005922127893998
20 -0.24476569980525
21 0.21342741662192
22 0.031202312595338
23 0.14845251051324
24 -0.13151202564743
25 -0.024660628865611
26 0.011404485796147
27 0.013256143069464
28 0.001082086332413
29 -0.001955852349006
30 -0.012814682322071
31 -0.050661934763017
32 -0.12346995933153
33 -0.063886933341321
34 0.093187139635667
35 0.21449931499115
36 -0.17688370635656
37 -0.027005502450702
38 -0.12710822372904
39 0.10620153397280
40 -0.031050882101448
41 0.016017714232918
42 0.015033167868530
43 0.001717970757891
44 -0.000360660682673
45 -0.012111057691141
46 0.065768215431442
47 0.15898145256232
48 0.086970637810452
49 0.051544557203465
50 0.27713274364218
51 0.15723543340308
52 -0.002399762462247
53 -0.16391539815454
54 -0.10007458234825
55 0.028199329582626
56 -0.019548690256463
57 -0.008650639326164
58 0.002353309327489
59 -0.001453739814306
60 -0.012452100729160
 Sym=     13.1
 Ene=      -0.8842
  Spin= Beta
 Occup=    1.000000
1 0.068942870623867
2 0.16903330996415
3 0.080102288486009
4 -0.20618686636572
5 -0.26524959340602
6 0.050682227870858
7 0.13191435913986
8 0.16332973018744
9 0.003125512392105
10 -0.011514790119565
11 -0.016794305877721
12 0.028309095997285
13 -0.015604683728647
14 0.001551571780739
15 0.000904674780393
16 0.056837499726193
17 0.13952402937567
18 0.065845586122796
19 0.21968636462152
20 0.21271282636367
21 0.079898545801339
22 -0.13318072537496
23 -0.13093261023043
24 -0.015173648909226
25 -0.017525685109461
26 -0.013292180456391
27 0.030817865565852
28 -0.015770059439264
29 -0.001090709874246
30 -0.002841263557417
31 -0.074996209681014
32 -0.18013336163301
33 -0.098151730565993
34 -0.19034141115290
35 0.25073590671638
36 -0.015680871495888
37 0.12045263264883
38 -0.15308372754568
39 0.040905451398418
40 0.011198701545320
41 0.015177612777688
42 -0.026376314323008
43 -0.012426586469917
44 0.001595314663795
45 -0.003315914813493
46 -0.057028364374676
47 -0.13702822675072
48 -0.070855234590038
49 0.19732347903055
50 -0.20301844203422
51 0.031655152327400
52 -0.11894565358011
53 0.12414405031799
54 0.011645521609345
55 0.016342459177148
56 0.012810109970174
57 -0.029152569147322
58 -0.012222569847789
59 -0.001561807057200
60 0.000536471297153
 Sym=     14.1
 Ene=      -0.4570
  Spin= Beta
 Occup=    0.000000
1 -0.006027704455412
2 -0.011322031633537
3 -0.019896159836887
4 -0.17394407490554
5 -0.021117348520506
6 0.24754157086548
7 0.13311421221661
8 0.017357178627087
9 -0.18998960421943
10 -0.005155641914382
11 0.000163116284033
12 0.004992525630349
13 -0.021889685474927
14 0.005427961813718
15 0.019082228119280
16 -0.005047128638136
17 -0.009346074010899
18 -0.016765598192630
19 0.16636485739659
20 0.036829604531772
21 0.24451418456495
22 -0.12796403280640
23 -0.028495408608944
24 -0.18749931990315
25 -0.003700302934893
26 -0.001514115972063
27 0.005214418906957
28 -0.022002694924541
29 -0.005455743712870
30 -0.018422590958169
31 0.005346057911524
32 0.012641217073780
33 0.008436300318199
34 0.20174919967279
35 -0.072968314299847
36 -0.24405988241301
37 -0.15530203863053
38 0.056620453546222
39 0.18349289314684
40 -0.006334499359028
41 -0.002626644913469
42 0.008961144272497
43 0.023587709045214
44 0.005473613395819
45 -0.018629464867104
46 0.000456096493141
47 0.001859971099358
48 -0.001907003217188
49 -0.19918194965063
50 0.060858255035305
51 -0.25772791741991
52 0.15139637205999
53 -0.046151503429641
54 0.19407578027097
55 -0.007335591946463
56 -0.002571989387565
57 0.009907581334028
58 0.023628617745501
59 -0.005786796244347
60 0.018973993836449
 Sym=     15.1
 Ene=      -0.1418
  Spin= Beta