[Molden Format]
[Title]
 Molden file created by orca_2mkl for BaseName=/home/vladimir/git/molden2qmc/test/N4/ORCA/RHF/cc-pVQZ/./N4

[Atoms] AU
N    1   7          0.9826575896         1.0015548510         0.9637603283 
N    2   7         -0.9826575896        -0.9826575896         0.9826575896 
N    3   7         -0.9826575896         0.9826575896        -0.9826575896 
N    4   7          0.9826575896        -0.9826575896        -0.9826575896 
[GTO]
  1 0
s   9 1.0 
    45840.0000000000         0.2070013119
     6868.0000000000         0.3885023806
     1563.0000000000         0.6693241386
      442.4000000000         1.0760700264
      144.3000000000         1.5891765404
       52.1800000000         2.0467625615
       20.3400000000         2.0957271491
        8.3810000000         1.4068954098
        3.5290000000         0.4024679210
s   9 1.0 
    45840.0000000000        -0.1280239503
     6868.0000000000        -0.2451024263
     1563.0000000000        -0.4185277093
      442.4000000000        -0.6855177236
      144.3000000000        -1.0179501673
       52.1800000000        -1.4038213591
       20.3400000000        -1.5671074566
        8.3810000000        -1.4767088923
        3.5290000000        -0.6121674414
s   1 1.0 
        1.0540000000         0.7413794612
s   1 1.0 
        0.4118000000         0.3663741711
s   1 1.0 
        0.1552000000         0.1762296099
p   3 1.0 
       49.3300000000         5.8003427037
       11.3700000000         6.3555590049
        3.4350000000         5.5883087071
p   1 1.0 
        1.1820000000         1.7567579743
p   1 1.0 
        0.4173000000         0.4780799923
p   1 1.0 
        0.1428000000         0.1251268026
d   1 1.0 
        2.8370000000        17.6796605055
d   1 1.0 
        0.9680000000         2.6930967689
d   1 1.0 
        0.3350000000         0.4205314648
f   1 1.0 
        2.0270000000        27.9525230183
f   1 1.0 
        0.6850000000         2.4339063574
g   1 1.0 
        1.4270000000        17.5039221697

  2 0
s   9 1.0 
    45840.0000000000         0.2070013119
     6868.0000000000         0.3885023806
     1563.0000000000         0.6693241386
      442.4000000000         1.0760700264
      144.3000000000         1.5891765404
       52.1800000000         2.0467625615
       20.3400000000         2.0957271491
        8.3810000000         1.4068954098
        3.5290000000         0.4024679210
s   9 1.0 
    45840.0000000000        -0.1280239503
     6868.0000000000        -0.2451024263
     1563.0000000000        -0.4185277093
      442.4000000000        -0.6855177236
      144.3000000000        -1.0179501673
       52.1800000000        -1.4038213591
       20.3400000000        -1.5671074566
        8.3810000000        -1.4767088923
        3.5290000000        -0.6121674414
s   1 1.0 
        1.0540000000         0.7413794612
s   1 1.0 
        0.4118000000         0.3663741711
s   1 1.0 
        0.1552000000         0.1762296099
p   3 1.0 
       49.3300000000         5.8003427037
       11.3700000000         6.3555590049
        3.4350000000         5.5883087071
p   1 1.0 
        1.1820000000         1.7567579743
p   1 1.0 
        0.4173000000         0.4780799923
p   1 1.0 
        0.1428000000         0.1251268026
d   1 1.0 
        2.8370000000        17.6796605055
d   1 1.0 
        0.9680000000         2.6930967689
d   1 1.0 
        0.3350000000         0.4205314648
f   1 1.0 
        2.0270000000        27.9525230183
f   1 1.0 
        0.6850000000         2.4339063574
g   1 1.0 
        1.4270000000        17.5039221697

  3 0
s   9 1.0 
    45840.0000000000         0.2070013119
     6868.0000000000         0.3885023806
     1563.0000000000         0.6693241386
      442.4000000000         1.0760700264
      144.3000000000         1.5891765404
       52.1800000000         2.0467625615
       20.3400000000         2.0957271491
        8.3810000000         1.4068954098
        3.5290000000         0.4024679210
s   9 1.0 
    45840.0000000000        -0.1280239503
     6868.0000000000        -0.2451024263
     1563.0000000000        -0.4185277093
      442.4000000000        -0.6855177236
      144.3000000000        -1.0179501673
       52.1800000000        -1.4038213591
       20.3400000000        -1.5671074566
        8.3810000000        -1.4767088923
        3.5290000000        -0.6121674414
s   1 1.0 
        1.0540000000         0.7413794612
s   1 1.0 
        0.4118000000         0.3663741711
s   1 1.0 
        0.1552000000         0.1762296099
p   3 1.0 
       49.3300000000         5.8003427037
       11.3700000000         6.3555590049
        3.4350000000         5.5883087071
p   1 1.0 
        1.1820000000         1.7567579743
p   1 1.0 
        0.4173000000         0.4780799923
p   1 1.0 
        0.1428000000         0.1251268026
d   1 1.0 
        2.8370000000        17.6796605055
d   1 1.0 
        0.9680000000         2.6930967689
d   1 1.0 
        0.3350000000         0.4205314648
f   1 1.0 
        2.0270000000        27.9525230183
f   1 1.0 
        0.6850000000         2.4339063574
g   1 1.0 
        1.4270000000        17.5039221697

  4 0
s   9 1.0 
    45840.0000000000         0.2070013119
     6868.0000000000         0.3885023806
     1563.0000000000         0.6693241386
      442.4000000000         1.0760700264
      144.3000000000         1.5891765404
       52.1800000000         2.0467625615
       20.3400000000         2.0957271491
        8.3810000000         1.4068954098
        3.5290000000         0.4024679210
s   9 1.0 
    45840.0000000000        -0.1280239503
     6868.0000000000        -0.2451024263
     1563.0000000000        -0.4185277093
      442.4000000000        -0.6855177236
      144.3000000000        -1.0179501673
       52.1800000000        -1.4038213591
       20.3400000000        -1.5671074566
        8.3810000000        -1.4767088923
        3.5290000000        -0.6121674414
s   1 1.0 
        1.0540000000         0.7413794612
s   1 1.0 
        0.4118000000         0.3663741711
s   1 1.0 
        0.1552000000         0.1762296099
p   3 1.0 
       49.3300000000         5.8003427037
       11.3700000000         6.3555590049
        3.4350000000         5.5883087071
p   1 1.0 
        1.1820000000         1.7567579743
p   1 1.0 
        0.4173000000         0.4780799923
p   1 1.0 
        0.1428000000         0.1251268026
d   1 1.0 
        2.8370000000        17.6796605055
d   1 1.0 
        0.9680000000         2.6930967689
d   1 1.0 
        0.3350000000         0.4205314648
f   1 1.0 
        2.0270000000        27.9525230183
f   1 1.0 
        0.6850000000         2.4339063574
g   1 1.0 
        1.4270000000        17.5039221697

[5D]
[9G]
[MO]
 Sym=     1a
 Ene= -1.57486581681484E+01
 Spin= Alpha
 Occup= 2.000000
  1       0.500736597614
  2       0.000421840431
  3       0.008526966033
  4      -0.001868543566
  5       0.000731973633
  6      -0.000904233022
  7      -0.000909700004
  8      -0.000898347046
  9       0.000229765925
 10       0.000233624801
 11       0.000226301352
 12      -0.000162049686
 13      -0.000161222326
 14      -0.000163057531
 15      -0.000185861706
 16      -0.000195082812
 17      -0.000178747300
 18      -0.000000712229
 19       0.000044756659
 20       0.000044790532
 21      -0.000000359693
 22       0.000044923113
 23       0.000003178558
 24      -0.000050346059
 25      -0.000053450067
 26       0.000001790468
 27      -0.000056518961
 28      -0.000000830500
 29       0.000162660360
 30       0.000159996198
 31      -0.000000449123
 32       0.000157874528
 33      -0.000009565967
 34       0.000006200048
 35       0.000005996881
 36       0.000000271904
 37       0.000023600768
 38       0.000007307854
 39      -0.000007488254
 40       0.000036581618
 41      -0.000024680423
 42      -0.000021951797
 43      -0.000002142017
 44       0.000035072366
 45      -0.000025251565
 46       0.000025218775
 47      -0.000010615088
 48       0.000005719118
 49       0.000005310343
 50       0.000001075627
 51      -0.000014274529
 52      -0.000015306443
 53       0.000014347411
 54       0.000006637718
 55       0.000000045809
 56       0.475141848036
 57       0.000403972484
 58       0.008091004803
 59      -0.001778488472
 60       0.000561899498
 61       0.000852966879
 62       0.000856239502
 63      -0.000863824832
 64      -0.000212567799
 65      -0.000210871108
 66       0.000213657595
 67       0.000134580521
 68       0.000132670578
 69      -0.000139231829
 70       0.000158122339
 71       0.000149504569
 72      -0.000155106832
 73      -0.000000102844
 74      -0.000044108119
 75      -0.000044537044
 76      -0.000000931345
 77       0.000043888562
 78       0.000002292296
 79       0.000056028716
 80       0.000054995745
 81       0.000002216574
 82      -0.000056960956
 83       0.000002844803
 84      -0.000146462187
 85      -0.000147726776
 86      -0.000000365108
 87       0.000142283518
 88      -0.000009208696
 89      -0.000005925394
 90      -0.000006274916
 91      -0.000000446257
 92       0.000022104621
 93      -0.000007422539
 94       0.000007204168
 95       0.000031891757
 96       0.000020318802
 97       0.000021844956
 98      -0.000000023813
 99       0.000039962547
100       0.000024080527
101      -0.000024521390
102      -0.000009233128
103      -0.000005501207
104      -0.000005638861
105       0.000000018332
106      -0.000014629824
107       0.000014727251
108      -0.000013922792
109       0.000006668640
110      -0.000000092073
111       0.516355730482
112       0.000433628869
113       0.008797735748
114      -0.001930335064
115       0.000840782247
116       0.000938529223
117      -0.000926130041
118       0.000935268826
119      -0.000240515492
120       0.000240094229
121      -0.000241567742
122       0.000178303467
123      -0.000174884667
124       0.000179481030
125       0.000203618184
126      -0.000209879471
127       0.000209955323
128      -0.000000703332
129       0.000045663730
130      -0.000044761876
131       0.000000546597
132      -0.000045069123
133       0.000002832849
134      -0.000050519784
135       0.000052625135
136       0.000000671463
137       0.000051629693
138       0.000000691498
139       0.000172937863
140      -0.000167381105
141       0.000002559980
142      -0.000168620583
143       0.000009583982
144      -0.000006190747
145       0.000005762274
146      -0.000000703637
147       0.000024692051
148      -0.000007365116
149      -0.000008054330
150      -0.000036654769
151       0.000024163768
152      -0.000022564521
153       0.000002422569
154       0.000031548217
155       0.000028825440
156       0.000029059682
157      -0.000010302140
158       0.000005577980
159      -0.000005732061
160       0.000000757229
161       0.000014953024
162      -0.000014729030
163      -0.000014445938
164       0.000008105889
165      -0.000000126207
166       0.492936414634
167       0.000416913929
168       0.008396992650
169      -0.001845579249
170       0.000683449156
171      -0.000890399070
172       0.000893907206
173       0.000887402764
174       0.000225028778
175      -0.000223184556
176      -0.000225938081
177      -0.000154103593
178       0.000151812156
179       0.000154907819
180      -0.000179057872
181       0.000169712083
182       0.000184674563
183      -0.000001518673
184      -0.000044181849
185       0.000044654198
186      -0.000000987318
187      -0.000044917384
188       0.000003632422
189       0.000055057977
190      -0.000054027428
191       0.000002357304
192       0.000053034374
193      -0.000001016151
194      -0.000154911987
195       0.000156109893
196      -0.000000322204
197      -0.000157412575
198       0.000009526408
199       0.000005197313
200      -0.000005650271
201       0.000000445794
202       0.000023282397
203       0.000008052490
204       0.000007760444
205      -0.000033237416
206      -0.000020943814
207       0.000020949188
208      -0.000000939724
209       0.000036117168
210      -0.000026929338
211      -0.000028623302
212      -0.000009281516
213      -0.000005962816
214       0.000005456403
215       0.000000044316
216       0.000014607599
217       0.000014741017
218       0.000014137033
219       0.000007824321
220       0.000000427120
 Sym=     1a
 Ene= -1.57477358821351E+01
 Spin= Alpha
 Occup= 2.000000
  1       0.312333421159
  2       0.000205425258
  3       0.005205354655
  4      -0.000898125995
  5       0.001923854501
  6      -0.000514566406
  7      -0.000586965735
  8      -0.000524995980
  9       0.000252773306
 10       0.000136833645
 11       0.000223776203
 12      -0.000404770020
 13      -0.000243271516
 14      -0.000362932910
 15      -0.000536527089
 16      -0.000078094677
 17      -0.000430824728
 18      -0.000006562757
 19      -0.000006013993
 20       0.000021285776
 21      -0.000020073673
 22       0.000015215992
 23       0.000014437479
 24       0.000022536163
 25       0.000023687770
 26       0.000041771922
 27       0.000022555003
 28       0.000007694587
 29       0.000156350194
 30       0.000160947743
 31       0.000033237018
 32       0.000162920177
 33       0.000000471603
 34      -0.000014397177
 35       0.000004834904
 36      -0.000022093577
 37       0.000011649106
 38       0.000010011764
 39       0.000000960394
 40       0.000018998427
 41       0.000000435253
 42      -0.000038455152
 43       0.000006894956
 44      -0.000039410621
 45      -0.000008117754
 46       0.000048459732
 47      -0.000007841458
 48       0.000004750919
 49       0.000002091608
 50       0.000003048015
 51       0.000001633030
 52      -0.000016833323
 53      -0.000007969916
 54       0.000004979901
 55      -0.000006458472
 56       0.143252719961
 57       0.000095078080
 58       0.002388244037
 59      -0.000417334609
 60       0.000853089767
 61       0.000290071794
 62       0.000224249439
 63      -0.000232372530
 64      -0.000014341312
 65      -0.000135959731
 66       0.000127360587
 67       0.000036614816
 68       0.000211341932
 69      -0.000200354905
 70      -0.000141308499
 71       0.000321756042
 72      -0.000282780493
 73      -0.000009684295
 74      -0.000015278461
 75       0.000012869740
 76       0.000019834601
 77       0.000012931958
 78       0.000020222245
 79      -0.000009441054
 80      -0.000008692151
 81      -0.000040673474
 82       0.000008641435
 83       0.000019152806
 84      -0.000071231753
 85      -0.000077762202
 86      -0.000038751297
 87       0.000067484747
 88       0.000000618847
 89      -0.000003172790
 90       0.000015567795
 91       0.000020827898
 92       0.000005635073
 93      -0.000000888130
 94       0.000010820760
 95      -0.000001465828
 96       0.000030447471
 97      -0.000006117790
 98      -0.000003380130
 99      -0.000017213452
100       0.000037517312
101       0.000004671249
102      -0.000005016046
103      -0.000002730575
104      -0.000005645649
105      -0.000004470264
106       0.000005652136
107      -0.000008823395
108      -0.000016901850
109       0.000000541102
110       0.000006325126
111      -0.833048125700
112      -0.000540430815
113      -0.013882893603
114       0.002397749628
115      -0.005306694492
116      -0.001447463033
117       0.001440737527
118      -0.001458557217
119       0.000569617687
120      -0.000551302845
121       0.000542269526
122      -0.000947163283
123       0.000922634590
124      -0.000907613753
125      -0.001014267023
126       0.000945211697
127      -0.000910310367
128      -0.000003008446
129      -0.000025362202
130       0.000028244984
131       0.000002268195
132       0.000022227938
133       0.000003488675
134      -0.000068793970
135       0.000066084910
136      -0.000008518943
137       0.000066563312
138       0.000007167202
139      -0.000434611898
140       0.000434382277
141      -0.000006725009
142       0.000435646406
143      -0.000000782397
144       0.000001212561
145      -0.000004324363
146      -0.000003538590
147      -0.000032873273
148      -0.000000446470
149      -0.000001719572
150       0.000083932660
151      -0.000044020266
152       0.000049304358
153      -0.000000290650
154       0.000111461686
155      -0.000055594017
156      -0.000062319457
157       0.000018720663
158      -0.000001613023
159       0.000001601874
160      -0.000000554070
161      -0.000011687594
162       0.000009329262
163       0.000006009640
164      -0.000016502705
165      -0.000000718369
166       0.417277047736
167       0.000273064816
168       0.006955235586
169      -0.001212852322
170       0.002578762322
171      -0.000702246328
172       0.000713314092
173       0.000761575845
174       0.000317654027
175      -0.000301030688
176      -0.000205912909
177      -0.000512524766
178       0.000488620977
179       0.000351821809
180      -0.000628600431
181       0.000566219675
182       0.000205991698
183       0.000018834885
184      -0.000019492083
185       0.000023439671
186      -0.000003122448
187       0.000002316690
188      -0.000038409548
189      -0.000029938577
190       0.000029795826
191       0.000006394990
192      -0.000029856979
193      -0.000037283214
194      -0.000213653996
195       0.000211825962
196       0.000003971999
197      -0.000219074729
198       0.000002744666
199       0.000012560620
200      -0.000015258942
201       0.000002851943
202       0.000016442361
203      -0.000010309761
204      -0.000011792472
205      -0.000070321857
206      -0.000014883369
207       0.000018569753
208      -0.000000644394
209      -0.000053359309
210      -0.000014175863
211      -0.000019076097
212      -0.000006812257
213       0.000005379709
214      -0.000006271499
215       0.000000750888
216       0.000018742114
217       0.000001364998
218      -0.000002140030
219       0.000011428885
220       0.000000706151
 Sym=     1a
 Ene= -1.57477223442297E+01
 Spin= Alpha
 Occup= 2.000000
  1      -0.793997089354
  2      -0.000512534711
  3      -0.013220801659
  4       0.002281959323
  5      -0.005025529240
  6       0.001393303524
  7       0.001376930978
  8       0.001367503408
  9      -0.000503879662
 10      -0.000561505703
 11      -0.000521591523
 12       0.000844794023
 13       0.000930663265
 14       0.000866975730
 15       0.000811118225
 16       0.001013683693
 17       0.000898415286
 18       0.000000264214
 19      -0.000030262885
 20      -0.000018427538
 21      -0.000008251358
 22      -0.000024121821
 23      -0.000003060155
 24      -0.000063140137
 25      -0.000061204138
 26       0.000015446442
 27      -0.000059601747
 28       0.000009961507
 29      -0.000406498707
 30      -0.000414771995
 31       0.000021162314
 32      -0.000421349356
 33       0.000000567215
 34      -0.000003067328
 35       0.000003743311
 36      -0.000007992780
 37      -0.000031125560
 38       0.000000175067
 39       0.000003943262
 40      -0.000075652382
 41       0.000051510396
 42       0.000036316994
 43       0.000000880347
 44       0.000105281627
 45       0.000069140971
 46      -0.000050267221
 47       0.000018721981
 48      -0.000002353220
 49      -0.000003106848
 50       0.000001167761
 51       0.000008238478
 52       0.000003424955
 53      -0.000013587826
 54      -0.000014944716
 55      -0.000002967579
 56       0.267267444586
 57       0.000172934413
 58       0.004450509231
 59      -0.000780041096
 60       0.001648568245
 61       0.000457879850
 62       0.000431230187
 63      -0.000504464635
 64      -0.000187312990
 65      -0.000238276747
 66       0.000107663177
 67       0.000305451343
 68       0.000379052926
 69      -0.000186878792
 70       0.000333509760
 71       0.000529224138
 72      -0.000039299201
 73       0.000019969532
 74      -0.000022441602
 75      -0.000010770471
 76       0.000008260061
 77      -0.000007921723
 78      -0.000038990534
 79      -0.000018633180
 80      -0.000018760592
 81      -0.000016586352
 82       0.000017440266
 83      -0.000039179444
 84      -0.000133019841
 85      -0.000135380505
 86      -0.000016983890
 87       0.000147016957
 88      -0.000002318728
 89      -0.000017109510
 90      -0.000009490538
 91       0.000008579517
 92       0.000010414082
 93       0.000012833512
 94      -0.000008356199
 95       0.000055778926
 96       0.000014985583
 97      -0.000000193182
 98      -0.000001056153
 99      -0.000033990020
100       0.000016091567
101       0.000001713680
102      -0.000002847695
103       0.000007191051
104       0.000005940773
105      -0.000001667383
106      -0.000017846631
107      -0.000007654115
108      -0.000003191041
109       0.000009608572
110       0.000002897471
111       0.015241629279
112       0.000011510590
113       0.000254925422
114      -0.000039256859
115       0.000074885823
116       0.000011636762
117      -0.000069457298
118      -0.000002340378
119      -0.000032927028
120      -0.000067449252
121      -0.000058244535
122       0.000048031441
123       0.000093462149
124       0.000084349418
125       0.000111992279
126       0.000282231420
127       0.000206579782
128      -0.000014428542
129      -0.000016782620
130      -0.000006872495
131      -0.000016851232
132      -0.000012823935
133       0.000030355152
134       0.000000537837
135      -0.000000600738
136       0.000035377182
137      -0.000000893459
138       0.000025172014
139       0.000005523670
140      -0.000007760680
141       0.000029231005
142      -0.000005937257
143      -0.000001712964
144       0.000018642287
145      -0.000002103239
146       0.000018670755
147       0.000000650023
148      -0.000013582990
149      -0.000004634769
150       0.000022578021
151      -0.000011333463
152      -0.000021410285
153      -0.000004868751
154      -0.000001086403
155      -0.000005306063
156       0.000029452410
157      -0.000001814254
158       0.000006516821
159      -0.000004273984
160       0.000002589236
161      -0.000009992074
162      -0.000013997251
163       0.000006842933
164      -0.000002030631
165       0.000005179711
166       0.532978152706
167       0.000346279953
168       0.008878410616
169      -0.001538575121
170       0.003330729780
171      -0.000959504412
172       0.000905116474
173       0.000914489365
174       0.000292681534
175      -0.000396253666
176      -0.000370177569
177      -0.000496588424
178       0.000646684250
179       0.000608595198
180      -0.000372226741
181       0.000768486263
182       0.000666809469
183      -0.000005621779
184      -0.000026620426
185       0.000002731340
186       0.000016735361
187      -0.000021070147
188       0.000012429818
189      -0.000039195494
190       0.000039454873
191      -0.000034047013
192      -0.000040198869
193       0.000007203371
194      -0.000274188810
195       0.000279644227
196      -0.000033222576
197      -0.000274773865
198      -0.000000117501
199       0.000004736931
200       0.000010574611
201      -0.000017948464
202       0.000020899227
203      -0.000000454263
204       0.000008252775
205      -0.000042517433
206      -0.000047460794
207       0.000016417961
208       0.000002594637
209      -0.000069065826
210      -0.000060903203
211      -0.000025221613
212      -0.000013256964
213      -0.000002640661
214       0.000004569486
215      -0.000003559816
216       0.000002362170
217      -0.000004208818
218       0.000017877032
219       0.000009140137
220      -0.000005272966
 Sym=     1a
 Ene= -1.57476949308756E+01
 Spin= Alpha
 Occup= 2.000000
  1       0.086185173373
  2       0.000052727264
  3       0.001431813169
  4      -0.000249208922
  5       0.000584089446
  6      -0.000120099541
  7      -0.000140966358
  8      -0.000189355668
  9       0.000116873473
 10       0.000080945117
 11      -0.000017152245
 12      -0.000186118417
 13      -0.000133473939
 14       0.000012444093
 15      -0.000316778366
 16      -0.000179938968
 17       0.000182306372
 18       0.000021455626
 19       0.000006897425
 20       0.000015505209
 21      -0.000005989366
 22      -0.000015768335
 23      -0.000044072807
 24       0.000007361223
 25       0.000006930078
 26       0.000012557460
 27       0.000007793297
 28      -0.000042860281
 29       0.000043530609
 30       0.000040071532
 31       0.000010856838
 32       0.000057552249
 33      -0.000002638900
 34       0.000011443399
 35       0.000016996642
 36      -0.000006281087
 37       0.000003894672
 38      -0.000010804902
 39       0.000013595354
 40       0.000041318957
 41       0.000009326658
 42      -0.000000284635
 43       0.000000816784
 44      -0.000012804513
 45       0.000013035200
 46      -0.000000535399
 47       0.000001985963
 48      -0.000006781690
 49      -0.000008011172
 50       0.000001779626
 51      -0.000017336525
 52       0.000000420536
 53      -0.000008247725
 54       0.000006665241
 55      -0.000001729291
 56      -0.817582110815
 57      -0.000528123645
 58      -0.013605487345
 59       0.002347184073
 60      -0.005093296469
 61      -0.001406883608
 62      -0.001430164204
 63       0.001418585128
 64       0.000551017065
 65       0.000515342555
 66      -0.000560625660
 67      -0.000910244007
 68      -0.000858548402
 69       0.000923834425
 70      -0.000956984825
 71      -0.000820221466
 72       0.000989884705
 73       0.000004804737
 74       0.000019733354
 75       0.000028374287
 76       0.000006700652
 77      -0.000029262518
 78      -0.000014344074
 79       0.000059500219
 80       0.000060065021
 81      -0.000014285267
 82      -0.000057297380
 83      -0.000011088288
 84       0.000426209704
 85       0.000423859965
 86      -0.000010044434
 87      -0.000421735930
 88       0.000000516734
 89      -0.000005517766
 90       0.000000144144
 91       0.000006395830
 92      -0.000031688134
 93       0.000005688088
 94      -0.000002935745
 95      -0.000068814939
 96      -0.000044512455
 97      -0.000054950245
 98      -0.000000820303
 99       0.000105466457
100      -0.000057638618
101       0.000069053632
102       0.000019818171
103       0.000005361293
104       0.000004448687
105      -0.000001567401
106       0.000005437692
107      -0.000013426670
108       0.000005719002
109      -0.000014695097
110       0.000001463390
111       0.159119546095
112       0.000100863289
113       0.002647176505
114      -0.000449826080
115       0.001051034961
116       0.000317613197
117      -0.000266341284
118       0.000244914155
119      -0.000035849130
120       0.000121942685
121      -0.000166168175
122       0.000079582974
123      -0.000204587655
124       0.000268973174
125      -0.000086976700
126      -0.000244807013
127       0.000409616905
128      -0.000016750830
129       0.000007791654
130       0.000012724410
131       0.000014542770
132      -0.000017840527
133       0.000035011467
134       0.000014731991
135      -0.000014114344
136      -0.000029599478
137      -0.000013919431
138       0.000029610924
139       0.000085334505
140      -0.000088824904
141      -0.000025714291
142      -0.000080491298
143      -0.000001629707
144       0.000004727817
145      -0.000018304625
146      -0.000015219349
147       0.000006178674
148      -0.000006228282
149      -0.000013736080
150       0.000010228034
151       0.000028265988
152      -0.000001890477
153       0.000003113635
154      -0.000022389761
155       0.000038055441
156       0.000008745497
157      -0.000006236168
158       0.000005524687
159      -0.000007671797
160      -0.000003011769
161      -0.000010277619
162       0.000003366760
163      -0.000014780087
164       0.000000079561
165      -0.000004384879
166       0.533831976405
167       0.000342598082
168       0.008883720689
169      -0.001522423204
170       0.003410979659
171      -0.000912124185
172       0.000962294253
173       0.000905749860
174       0.000383723785
175      -0.000297109494
176      -0.000390853675
177      -0.000638155396
178       0.000512054153
179       0.000648188147
180      -0.000718071009
181       0.000385033316
182       0.000743810380
183      -0.000010525760
184      -0.000001602106
185       0.000022105226
186      -0.000014988272
187      -0.000023918802
188       0.000022021800
189      -0.000042287082
190       0.000042863299
191       0.000031392779
192      -0.000042786564
193       0.000016154497
194      -0.000283630376
195       0.000278990873
196       0.000026507675
197      -0.000277594970
198      -0.000000564113
199      -0.000013269806
200      -0.000000495120
201       0.000015087214
202       0.000020751940
203       0.000009971938
204       0.000002587256
205      -0.000035995572
206      -0.000021227618
207       0.000046733782
208      -0.000002594927
209      -0.000071562591
210      -0.000031266843
211      -0.000061080989
212      -0.000013833482
213      -0.000006651845
214       0.000004090436
215       0.000003339390
216      -0.000001299142
217       0.000017003752
218      -0.000001225195
219       0.000008487872
220       0.000004512452
 Sym=     1a
 Ene= -1.65179347726694E+00
 Spin= Alpha
 Occup= 2.000000
  1      -0.005385615049
  2       0.141090190652
  3       0.107955494573
  4       0.198231071081
  5       0.042016154172
  6      -0.017922088034
  7      -0.017904305914
  8      -0.017931036975
  9      -0.034898261743
 10      -0.034844710441
 11      -0.034934455081
 12      -0.040540780660
 13      -0.040564161331
 14      -0.040504445585
 15      -0.006353420267
 16      -0.006383216739
 17      -0.006322054360
 18       0.000000101522
 19       0.001351645138
 20       0.001335289748
 21       0.000001034631
 22       0.001319935589
 23      -0.000019777052
 24       0.006762356651
 25       0.006687415254
 26      -0.000007620641
 27       0.006614349416
 28      -0.000085910321
 29       0.008290434274
 30       0.008272530093
 31      -0.000047132307
 32       0.008256620202
 33       0.000189893994
 34      -0.000127649042
 35      -0.000111859572
 36      -0.000012025653
 37      -0.000117533420