[Molden Format]
[Atoms] AU
   N     1    7      0.9826575141     0.9968304590     0.9684845691
   N     2    7     -0.9826575141    -0.9873818290     0.9873818290
   N     3    7     -0.9826575141     0.9779331991    -0.9779331991
   N     4    7      0.9826575141    -0.9873818290    -0.9779331991
[GTO]
    1  0
  s      5  0
      1712.8415853000        -0.0053934125
       257.6481267700        -0.0402215811
        58.4582458530        -0.1793114499
        16.1983679050        -0.4637631782
         5.0052600809        -0.4417142266
  s      1  0
         0.5873185657         1.0000000000
  s      1  0
         0.1876459225         1.0000000000
  p      3  0
        13.5714702330        -0.0400723989
         2.9257372874        -0.2180704503
         0.7992775075        -0.5129446605
  p      1  0
         0.2195434803         1.0000000000
  d      1  0
         1.0000000000         1.0000000000

    2  0
  s      5  0
      1712.8415853000        -0.0053934125
       257.6481267700        -0.0402215811
        58.4582458530        -0.1793114499
        16.1983679050        -0.4637631782
         5.0052600809        -0.4417142266
  s      1  0
         0.5873185657         1.0000000000
  s      1  0
         0.1876459225         1.0000000000
  p      3  0
        13.5714702330        -0.0400723989
         2.9257372874        -0.2180704503
         0.7992775075        -0.5129446605
  p      1  0
         0.2195434803         1.0000000000
  d      1  0
         1.0000000000         1.0000000000

    3  0
  s      5  0
      1712.8415853000        -0.0053934125
       257.6481267700        -0.0402215811
        58.4582458530        -0.1793114499
        16.1983679050        -0.4637631782
         5.0052600809        -0.4417142266
  s      1  0
         0.5873185657         1.0000000000
  s      1  0
         0.1876459225         1.0000000000
  p      3  0
        13.5714702330        -0.0400723989
         2.9257372874        -0.2180704503
         0.7992775075        -0.5129446605
  p      1  0
         0.2195434803         1.0000000000
  d      1  0
         1.0000000000         1.0000000000

    4  0
  s      5  0
      1712.8415853000        -0.0053934125
       257.6481267700        -0.0402215811
        58.4582458530        -0.1793114499
        16.1983679050        -0.4637631782
         5.0052600809        -0.4417142266
  s      1  0
         0.5873185657         1.0000000000
  s      1  0
         0.1876459225         1.0000000000
  p      3  0
        13.5714702330        -0.0400723989
         2.9257372874        -0.2180704503
         0.7992775075        -0.5129446605
  p      1  0
         0.2195434803         1.0000000000
  d      1  0
         1.0000000000         1.0000000000

[5D]
[9G]
[MO]
Sym=        a    
Ene=  -0.16140685670879E+02
Spin=       Alpha
Occup=       1.0000000000
     1    0.979172376988
     2   -0.033520274991
     3    0.020940971295
     4   -0.001984621840
     5   -0.002021297117
     6   -0.002758794655
     7   -0.004164871987
     8   -0.004220977979
     9   -0.004809866711
    10   -0.000027823012
    11    0.000001708596
    12    0.000004596332
    13   -0.000021370890
    14   -0.000010216795
    15    0.151532004614
    16   -0.005443855116
    17   -0.000830627832
    18    0.000312391877
    19    0.000318130648
    20   -0.000541961011
    21   -0.000703197044
    22   -0.000732146833
    23   -0.001581132151
    24   -0.000409917499
    25   -0.000106542733
    26   -0.000103930222
    27   -0.000009215874
    28    0.000699372874
    29    0.004788782016
    30   -0.000523883560
    31   -0.004566934867
    32    0.000007490934
    33   -0.000148357602
    34   -0.000015235277
    35   -0.001218360445
    36   -0.000891754227
    37   -0.001500868124
    38    0.000251939095
    39    0.000794994155
    40   -0.000218848207
    41    0.000327471208
    42   -0.000120306083
    43    0.004618975177
    44   -0.000497981744
    45   -0.004644169067
    46   -0.000143669209
    47    0.000021095268
    48   -0.000002042918
    49   -0.000833027713
    50   -0.001271387180
    51   -0.001521861811
    52    0.000239762434
    53   -0.000226263237
    54    0.000768814062
    55   -0.000319529134
    56   -0.000125866401
Sym=        a    
Ene=  -0.16139579764666E+02
Spin=       Alpha
Occup=       1.0000000000
     1   -0.151431593230
     2    0.004889208214
     3   -0.007422438235
     4    0.000303747737
     5    0.000308277990
     6    0.000305871565
     7    0.002029937277
     8    0.002052312738
     9   -0.000183415675
    10   -0.000424449898
    11    0.000095105011
    12    0.000093488754
    13   -0.000004315499
    14    0.000743604941
    15    0.979167734976
    16   -0.033389009290
    17    0.022122229742
    18    0.002016694017
    19    0.002052349081
    20   -0.002723481095
    21    0.004573656074
    22    0.004601326634
    23   -0.004580538067
    24    0.000087456484
    25    0.000008593371
    26    0.000014870817
    27   -0.000015654456
    28   -0.000228191805
    29    0.003452929191
    30   -0.000375309645
    31   -0.003357529305
    32    0.000146918485
    33    0.000021835493
    34    0.000002444158
    35    0.001276185224
    36    0.001557586712
    37   -0.001119627743
    38    0.000183417709
    39   -0.000009515757
    40   -0.000738267543
    41   -0.000430763612
    42   -0.000093132663
    43    0.003480061925
    44   -0.000375028149
    45   -0.003368642857
    46    0.000022192352
    47    0.000146030717
    48   -0.000001160705
    49    0.001551679067
    50    0.001275435810
    51   -0.001130677671
    52    0.000184462326
    53   -0.000738186850
    54   -0.000007311085
    55    0.000428969957
    56   -0.000092585931
Sym=        a    
Ene=  -0.16095921193008E+02
Spin=       Alpha
Occup=       1.0000000000
     1   -0.005461819631
     2   -0.000256660267
     3   -0.005460553028
     4   -0.000035215537
     5   -0.000104121586
     6    0.000043378382
     7    0.000681477440
     8   -0.000180000515
     9    0.001820233294
    10    0.000284910803
    11    0.000725715923
    12    0.000472003559
    13    0.000146234687
    14    0.000142638977
    15   -0.005468951737
    16   -0.000238052275
    17   -0.005524333248
    18    0.000100107180
    19    0.000047453463
    20    0.000030629111
    21    0.000150012249
    22   -0.000705565876
    23    0.001844194334
    24    0.000293876992
    25   -0.000465889352
    26   -0.000704784095
    27   -0.000139116491
    28    0.000132635319
    29    0.860307163196
    30   -0.028389955142
    31    0.016356768794
    32    0.002085018602
    33   -0.002036261344
    34    0.002018292552
    35    0.003221144908
    36   -0.003169907581
    37    0.004315778932
    38   -0.000244046576
    39   -0.000036009766
    40    0.000031954344
    41   -0.000007384842
    42   -0.000190841660
    43    0.492366201735
    44   -0.016395385642
    45    0.006992567091
    46   -0.001167137370
    47    0.001170118733
    48    0.001221927788
    49   -0.001044730331
    50    0.001037294812
    51    0.003021816809
    52   -0.000392678660
    53   -0.000045038681
    54    0.000040601871
    55   -0.000001212609
    56   -0.000551652360
Sym=        a    
Ene=  -0.16095493219679E+02
Spin=       Alpha
Occup=       1.0000000000
     1   -0.001361953627
     2   -0.000064689363
     3   -0.001481492678
     4   -0.000125299611
     5    0.000077941628
     6    0.000000451470
     7   -0.001483664868
     8    0.001639059532
     9    0.000485729521
    10    0.000070097052
    11   -0.000294369365
    12    0.000597617798
    13   -0.000523675443
    14    0.000032382977
    15   -0.001489058329
    16   -0.000070220155
    17   -0.001464170915
    18   -0.000077952343
    19    0.000118504114
    20    0.000008002475
    21   -0.001618794013
    22    0.001495678530
    23    0.000492722530
    24    0.000079528807
    25   -0.000602827846
    26    0.000282845330
    27    0.000510460119
    28    0.000037692230
    29   -0.492273407872
    30    0.015867818024
    31   -0.013765133918
    32   -0.001209074747
    33    0.001181727372
    34   -0.001002499826
    35   -0.003316566687
    36    0.003303682213
    37   -0.001309176839
    38   -0.000366811693
    39    0.000138830558
    40   -0.000134326026
    41    0.000005974870
    42   -0.000771023368
    43    0.860273333209
    44   -0.028003451168
    45    0.020062969280
    46   -0.002069868161
    47    0.002072350337
    48    0.001868921182
    49   -0.004457369126
    50    0.004470266587
    51    0.003280160899
    52    0.000198229680
    53    0.000126744417
    54   -0.000129131702
    55   -0.000002763164
    56    0.000571333726
Sym=        a    
Ene=  -0.20420396907709E+01
Spin=       Alpha
Occup=       1.0000000000
     1    0.138580771234
     2    0.289053419114
     3    0.072812456641
     4    0.080102266261
     5    0.080719051987
     6    0.088605300301
     7   -0.023234728960
     8   -0.023700448660
     9   -0.026373911507
    10   -0.000292654175
    11    0.011755878924
    12    0.012037358768
    13   -0.000011529509
    14    0.016518579411
    15    0.137689331287
    16    0.287298465917
    17    0.071863272833
    18   -0.079480000259
    19   -0.080293831873
    20    0.088598629055
    21    0.023040239754
    22    0.023222815322
    23   -0.026364222283
    24    0.000132486417
    25   -0.011788219656
    26   -0.012027384385
    27    0.000054917038
    28    0.016330008562
    29    0.123922414646
    30    0.251027762518
    31    0.054100840762
    32   -0.078417208657
    33    0.077078216745
    34   -0.076195741626
    35    0.021062975099
    36   -0.020970493245
    37    0.018688607258
    38    0.000089081933
    39    0.013472219635
    40   -0.013469128724
    41    0.000131607428
    42   -0.013737438661
    43    0.122911289415
    44    0.249014109013
    45    0.052895042801
    46    0.077194523965
    47   -0.077775540236
    48   -0.075019371229
    49   -0.020616220399
    50    0.020694181820
    51    0.018296676787
    52   -0.000059034128
    53   -0.013315565067
    54    0.013434849567
    55   -0.000106742869
    56   -0.013789727583
Sym=        a    
Ene=  -0.14414726033392E+01
Spin=       Alpha
Occup=       1.0000000000
     1    0.195704277164
     2    0.434931457770
     3    0.340658458117
     4   -0.053640559431
     5   -0.055804567336
     6    0.128585081603
     7   -0.032261411422
     8   -0.032484951688
     9   -0.082442239875
    10    0.014704180749
    11    0.004061415582
    12    0.004074153234
    13    0.000585778029
    14   -0.004393573169
    15   -0.199628903124
    16   -0.442982481870
    17   -0.347249904146
    18   -0.048505236040
    19   -0.049734589388
    20   -0.122695730755
    21   -0.034788526764
    22   -0.035104387243
    23    0.082896651470
    24   -0.014274155358
    25    0.003667150977
    26    0.003709627670
    27   -0.000643871957
    28    0.003647997006
    29    0.004326672666
    30    0.009489224189
    31    0.006004899917
    32   -0.123052191028
    33   -0.121130230838
    34    0.001250636402
    35    0.021982778110
    36    0.020165333402
    37    0.000430484943
    38   -0.000345057212
    39    0.014517904684
    40    0.014749613182
    41    0.024110773494
    42    0.000011059787
    43   -0.000292580277
    44   -0.000678419022
    45    0.000406167916
    46   -0.119170450339
    47   -0.121965954652
    48    0.004044314857
    49    0.020384446019
    50    0.021148256980
    51   -0.000650903719
    52   -0.000726978951
    53    0.014718664302
    54    0.014161974339
    55   -0.024022346832
    56   -0.000220815134
Sym=        a    
Ene=  -0.13965315264572E+01
Spin=       Alpha
Occup=       1.0000000000
     1    0.136198456614
     2    0.298392529044
     3    0.266994368014
     4    0.072029508778
     5    0.063321163385
     6   -0.137374357090
     7   -0.054327607416
     8   -0.052539865215
     9   -0.009662945542
    10   -0.023938088635
    11   -0.008103573668
    12   -0.009141810118
    13    0.000780831283
    14    0.019501075778
    15    0.129950457042
    16    0.284638037786
    17    0.253868458015
    18   -0.066978802540
    19   -0.077342141617
    20   -0.140609416797
    21    0.051297307823
    22    0.054064428942
    23   -0.007145280919
    24   -0.024292526185
    25    0.008986281777
    26    0.007965532452
    27   -0.000696068785
    28    0.019777823725
    29   -0.130275564128
    30   -0.280743882709
    31   -0.250940992438
    32    0.079866206932
    33   -0.083957981892
    34   -0.120732999622
    35   -0.055263809869
    36    0.055147068655
    37   -0.014328394956
    38    0.020336214698
    39    0.005305168919
    40   -0.004481839658
    41    0.000361345954
    42    0.018477464239
    43   -0.140455526795
    44   -0.302547683514
    45   -0.268175861321
    46   -0.082540957248
    47    0.077457094758
    48   -0.113792402538
    49    0.057693960968
    50   -0.057104567848
    51   -0.018065251897
    52    0.019361504847
    53   -0.004150523478
    54    0.004703678487
    55   -0.000440674979
    56    0.018106635853
Sym=        a    
Ene=  -0.13797004648420E+01
Spin=       Alpha
Occup=       1.0000000000
     1   -0.006009859359
     2   -0.013193085224
     3   -0.013655640692
     4    0.164774231007
     5   -0.164497397862
     6    0.003823737472
     7   -0.036612830316
     8    0.040456520715
     9    0.001600352334
    10    0.000686394221
    11    0.017971990669
    12   -0.017267856719
    13    0.025752778812
    14   -0.000213849506
    15   -0.002032848764
    16   -0.004399769358
    17   -0.003486383492
    18    0.166640310186
    19   -0.158450072772
    20    0.005510604948
    21   -0.039496208669
    22    0.036359018959
    23   -0.000848863215
    24    0.000839812302
    25    0.017371358948
    26   -0.017787054874
    27   -0.025644782853
    28   -0.000925336625
    29    0.186218854420
    30    0.400646475644
    31    0.359177424489
    32    0.032128561083
    33   -0.031515517875
    34   -0.100095000759
    35    0.047793209599
    36   -0.047108636311
    37    0.072658561950
    38    0.014779396387
    39    0.007903242032
    40   -0.008230140108
    41   -0.000233198228
    42    0.006649438142
    43   -0.178898399965
    44   -0.384692903053
    45   -0.343573567047
    46    0.037269998950
    47   -0.032956171430
    48    0.106478644539
    49    0.044087172483
    50   -0.045249810996
    51   -0.071275111822
    52   -0.015689354401
    53    0.008198475512
    54   -0.008784978706
    55    0.000355298249
    56   -0.007340049941
Sym=        a    
Ene=  -0.10518382389321E+01
Spin=       Alpha
Occup=       1.0000000000
     1   -0.089554684535
     2   -0.203575671477
     3   -0.184163050209
     4    0.278005672059
     5    0.274263987032
     6    0.073490656883
     7   -0.125105076161
     8   -0.122898417618
     9   -0.025823892057
    10   -0.009453951577
    11    0.020809101335
    12    0.020579897462
    13   -0.000542040581
    14    0.027282230055
    15   -0.089894135755
    16   -0.203137085409
    17   -0.192251268709
    18   -0.272005844520
    19   -0.267646885708
    20    0.069151581846
    21    0.119231619982
    22    0.116217985661
    23   -0.022472304635
    24   -0.010143667934
    25   -0.020926371982
    26   -0.020598220313
    27   -0.000536842151
    28    0.027596929856
    29   -0.035933308410
    30   -0.070150505643
    31   -0.103823439161
    32   -0.108903238481
    33    0.101868534920
    34   -0.126727152334
    35    0.040203210507
    36   -0.037815033943
    37    0.045024540718
    38    0.006246680033
    39    0.018033200711
    40   -0.017145491264
    41    0.000649388919
    42   -0.019988022556
    43   -0.035803289570
    44   -0.069840370216
    45   -0.104094451688
    46    0.102475261866
    47   -0.106249467616
    48   -0.124101624168
    49   -0.037858200612
    50    0.038686549469
    51    0.043732895177
    52    0.006038161677
    53   -0.017330779363
    54    0.017595817982
    55   -0.000485149189
    56   -0.019892646126
Sym=        a    
Ene=  -0.95679815369928E+00
Spin=       Alpha
Occup=       1.0000000000
     1    0.035157350295
     2    0.102397954516
     3    0.017303621793
     4   -0.162438985682
     5   -0.153809701690
     6    0.277971073406
     7    0.099367474987
     8    0.094455989061
     9   -0.129909525046
    10    0.025131543141
    11    0.014072055368
    12    0.015253245157
    13    0.000091715926
    14   -0.012856710589
    15    0.031007740137
    16    0.091115477510
    17    0.016578594226
    18    0.158621072644
    19    0.151294380183
    20    0.293213269785
    21   -0.094118996525
    22   -0.090229927020
    23   -0.138497046065
    24    0.027048096639
    25   -0.014517409302
    26   -0.015498018025
    27    0.000188137762
    28   -0.013724476707
    29   -0.091319682954
    30   -0.209251813920
    31   -0.174202643866
    32   -0.136285991727
    33    0.148193319525
    34   -0.172008536977
    35    0.067580469824
    36   -0.073595064000
    37    0.101482178499
    38   -0.012328908463
    39    0.016666424958
    40   -0.017620761718
    41   -0.000816145068
    42   -0.001833093680
    43   -0.091421401363
    44   -0.209461195350
    45   -0.174992882329
    46    0.144088124284
    47   -0.138684403201
    48   -0.170006057681
    49   -0.070906328660
    50    0.068898444749
    51    0.100196777766
    52   -0.012266548332
    53   -0.017213132777
    54    0.016942217646
    55    0.000614158764
    56   -0.001880984816
Sym=        a    
Ene=  -0.92098782483820E+00
Spin=       Alpha
Occup=       1.0000000000
     1   -0.094400567303
     2   -0.234206851251
     3   -0.097952195730
     4    0.133349841079
     5    0.103788882377
     6    0.329283116193
     7   -0.106287800333
     8   -0.091204372759
     9   -0.191451074625
    10    0.025803868131
    11    0.011922215488
    12    0.009988237938
    13    0.000983168443
    14   -0.004581832611
    15    0.098683462657
    16    0.244763482075
    17    0.106282618187
    18    0.130744549150
    19    0.128619227934
    20   -0.319211416718
    21   -0.104625263602
    22   -0.104376023795
    23    0.186436250247
    24   -0.023747466448
    25    0.010457927207
    26    0.011412674490
    27   -0.000500650504
    28    0.002925419688
    29   -0.007061782729
    30   -0.016601018524
    31   -0.014423206458
    32   -0.191722954494
    33   -0.175755799050
    34   -0.011566825822
    35    0.090763893548
    36    0.081804406003
    37    0.005870962648
    38   -0.000119690377
    39    0.010519610673
    40    0.009758465210
    41    0.033366388627
    42    0.000271960640
    43    0.002665975746
    44    0.006388564394
    45    0.004598108004
    46   -0.173102192380
    47   -0.169391325122
    48    0.009577744771
    49    0.080931978329
    50    0.077546363136
    51   -0.004809526997
    52   -0.001192062213
    53    0.009003907284
    54    0.008416257378
    55   -0.032638751656
    56    0.000191239493
Sym=        a    
Ene=  -0.91204470112114E+00
Spin=       Alpha
Occup=       1.0000000000
     1   -0.003859351024
     2   -0.009625780629
     3   -0.003752874448
     4   -0.211153847045
     5    0.218092968559
     6    0.009782881354
     7    0.103172033462
     8   -0.110133392814
     9   -0.006003269118
    10    0.001072680876
    11   -0.009989770804
    12    0.010286659618
    13   -0.028551307408
    14   -0.000101573905
    15    0.005459477387
    16    0.013258504102
    17    0.007508429064
    18   -0.186120829322
    19    0.191790245857
    20   -0.017755058132
    21    0.089057529473
    22   -0.094471569309
    23    0.010369218068
    24   -0.000908960127
    25   -0.007288964160
    26    0.008450520401
    27    0.028015200192
    28    0.000911031266
    29    0.117336054657
    30    0.282672706715
    31    0.188899957716
    32    0.106720595496
    33   -0.101366649608
    34    0.278988015739
    35   -0.077700113506
    36    0.073851875772
    37   -0.159055488387
    38   -0.015640587113
    39   -0.009510593095
    40    0.007486540719
    41    0.000770616886
    42   -0.000831514781
    43   -0.120185578757
    44   -0.289332322274
    45   -0.194623727336
    46    0.098712308034
    47   -0.131691531880
    48   -0.268257884283
    49   -0.073215887565
    50    0.090505328287
    51    0.153119399229
    52    0.014504168043
    53   -0.006805044484
    54    0.009752772108
    55   -0.001941545368
    56   -0.000660273162
Sym=        a    
Ene=  -0.90208907931584E+00
Spin=       Alpha
Occup=       1.0000000000
     1    0.001603331918
     2    0.004436073164
     3    0.000050902602
     4    0.262769399107
     5   -0.273427281296
     6    0.003861674270
     7   -0.151547783707
     8    0.160019893552
     9   -0.001854880752
    10   -0.000204202112
    11    0.027354953877
    12   -0.026728727760
    13    0.006383823672
    14   -0.000912777028
    15   -0.002592473752
    16   -0.006480475427
    17   -0.000942825970
    18   -0.287948038154
    19    0.286862944385
    20    0.019943333685
    21    0.166645077891
    22   -0.163501269813
    23   -0.012479316675
    24    0.000936236274
    25   -0.028746502053
    26    0.027027308722
    27    0.009525735367
    28   -0.001153036025
    29    0.006277145762
    30    0.015670122678
    31    0.007125190861
    32   -0.185373421763
    33   -0.215993337104
    34    0.001772260176
    35    0.107554061105
    36    0.127999434387
    37   -0.002659897862
    38   -0.000072095897
    39    0.024319801794
    40    0.024163011286
    41    0.010429952629
    42    0.001893342130
    43   -0.003754050763
    44   -0.009117597729
    45   -0.005174121964
    46    0.203949149092
    47    0.215496189171
    48   -0.027209428175
    49   -0.119823910726
    50   -0.124104023450
    51    0.015486898192
    52    0.002081881937
    53   -0.025698022237
    54   -0.023712412359
    55    0.012510587512
    56    0.001510541021
Sym=        a    
Ene=  -0.88464289879372E+00
Spin=       Alpha
Occup=       1.0000000000
     1   -0.036581574116
     2   -0.089332188480
     3   -0.042899969077
     4   -0.009383333284
     5    0.024667906533
     6    0.197773508830
     7    0.003060365141
     8   -0.016822100836
     9   -0.135734157067
    10   -0.004378982916
    11    0.009379155766
    12    0.012276286789
    13   -0.000796316853
    14   -0.019069417666
    15   -0.035983034692
    16   -0.087889697923
    17   -0.043682638820
    18    0.005599947170
    19   -0.011026088157
    20    0.196218270870
    21   -0.002121549835
    22    0.008356290599
    23   -0.134320649880
    24   -0.004292740944
    25   -0.009658090029
    26   -0.012068025144
    27    0.000264308818
    28   -0.019005927407
    29    0.046895127815
    30    0.111241959057
    31    0.067391521511
    32    0.260568938850
    33   -0.243829558786
    34   -0.233652255197
    35   -0.156357665169
    36    0.145315265827
    37    0.121451194015
    38    0.023896788455
    39    0.010109324692
    40   -0.012266640518
    41   -0.000448672765
    42    0.033070667005
    43    0.042889058721
    44    0.101278662274
    45    0.062954978716
    46   -0.259996320375
    47    0.235149390717
    48   -0.244562250052
    49    0.154063328298
    50   -0.139329943696
    51    0.128221741680
    52    0.024455405174
    53   -0.010337384138
    54    0.012858820251
    55   -0.000835222482
    56    0.033011317542
Sym=        a    
Ene=  -0.18818149425199E+00
Spin=       Alpha
Occup=       0.0000000000
     1    0.027774600647
     2    0.056732501903
     3    0.181022524169
     4    0.248763239487
     5    0.234300180026
     6   -0.351102912897
     7   -0.309122248299
     8   -0.292342630829
     9    0.398150738657
    10   -0.000759966821
    11    0.011898091644
    12    0.012472841732
    13   -0.000439772486
    14   -0.014998290439
    15   -0.026411776368
    16   -0.054358010656
    17   -0.175369487686
    18    0.246877691975
    19    0.240630091286
    20    0.348734712936
    21   -0.307042710066
    22   -0.299028042459
    23   -0.393730937798
    24    0.000298437795
    25    0.011679085161
    26    0.012031833772
    27    0.000375147021
    28    0.014946164538
    29   -0.001204467626
    30   -0.002961691522
    31   -0.006790274874
    32   -0.173038970719
    33   -0.167761358102
    34    0.016722276586
    35    0.186208245326
    36    0.181805440411
    37   -0.019460366993
    38    0.000004127366
    39   -0.000107060357
    40    0.000147997517
    41    0.006410085787
    42    0.000229493797
    43    0.000123830690
    44   -0.000101197181
    45    0.004428549520
    46   -0.177299117109
    47   -0.171489245970
    48   -0.009813555140
    49    0.190687750238
    50    0.186447936997
    51    0.011743984790
    52    0.000202574053
    53    0.000011582051
    54   -0.000068045730
    55   -0.006486271389
    56   -0.000028581217
Sym=        a    
Ene=  -0.14295323339179E+00
Spin=       Alpha
Occup=       0.0000000000
     1   -0.001175765848
     2   -0.003434184301
     3   -0.007168474389
     4    0.127164067484
     5   -0.129115840572
     6   -0.005643668560
     7   -0.147455763374
     8    0.150724737100
     9    0.008985702401
    10   -0.000016165322
    11   -0.005000764484
    12    0.005441094555
    13    0.000127941467
    14   -0.000616029816
    15   -0.000391964573
    16   -0.001154338095
    17   -0.005833749584
    18   -0.310821442960
    19    0.316210985924
    20   -0.001221211139
    21    0.374438490037
    22   -0.382209967803
    23    0.004230655712
    24    0.000335048525
    25    0.010811053339
    26   -0.010886864994
    27   -0.005593527835
    28   -0.000144702903
    29    0.004959963083
    30    0.011054639502
    31    0.037183623677
    32    0.326401928039
    33    0.170952289588
    34   -0.196677815315
    35   -0.399580906881
    36   -0.219608709748
    37    0.244822955507
    38    0.001252259865
    39    0.002555702801
    40    0.005461465296
    41   -0.002434810797
    42   -0.004801267256
    43   -0.003231790681
    44   -0.007431419797
    45   -0.021342622174
    46   -0.170804402012
    47   -0.334414798188
    48    0.190010071814
    49    0.218916048685
    50    0.410326566564
    51   -0.231167042796
    52   -0.001450122711
    53   -0.005298702823
    54   -0.002806340640
    55   -0.002480455582
    56    0.004076791717
Sym=        a    
Ene=  -0.14158208480039E+00
Spin=       Alpha
Occup=       0.0000000000
     1    0.004041519131
     2    0.010241305481
     3    0.028308465541
     4   -0.275946573306
     5    0.301776352374
     6   -0.002060567693
     7    0.333230584156
     8   -0.373159875402
     9   -0.000555250237
    10   -0.000154903723
    11    0.009760485130
    12   -0.008769388172
    13    0.007755307964
    14   -0.000165587889
    15   -0.001318012973
    16   -0.002942455164
    17   -0.009426000280
    18   -0.040344963845
    19    0.058007838420
    20    0.010988237218
    21    0.051093841640
    22   -0.079667653064
    23   -0.016811776096
    24   -0.000264411753
    25    0.001420022471
    26    0.000200006417
    27   -0.004021394164
    28    0.001177161458
    29    0.004781826249
    30    0.010145607612
    31    0.039390789681
    32    0.012561759757
    33   -0.292002102516
    34   -0.344999809203
    35   -0.006796008625
    36    0.350627024679
    37    0.422980337680
    38    0.002566438983
    39   -0.004332844116
    40    0.000908790269
    41    0.001558640149
    42   -0.007677134723
    43   -0.007552379379
    44   -0.016902475916
    45   -0.059019552535
    46    0.282121017320
    47   -0.010547232657
    48    0.356463537587
    49   -0.342971271089
    50   -0.001309559567
    51   -0.443949548924
    52   -0.002218664085
    53   -0.000278084144
    54    0.005116567752
    55    0.000921687418
    56    0.008667980456
Sym=        a    
Ene=  -0.60143004073478E-01
Spin=       Alpha
Occup=       0.0000000000
     1   -0.121171034416
     2   -0.312650688226
     3   -0.966749352076
     4   -0.224055492507
     5   -0.223446015770
     6   -0.178449501843
     7    0.519565769631
     8    0.527875242215
     9    0.228890321834
    10   -0.009332923727
    11   -0.015867544156
    12   -0.015529410966
    13   -0.000486131566
    14    0.009636446489
    15    0.142488952025
    16    0.367493457736
    17    1.152330723203
    18   -0.250955569011
    19   -0.258086718630
    20    0.248696501672
    21    0.563505636481
    22    0.582529576906
    23   -0.398907376690
    24    0.007611802906
    25   -0.013197453584
    26   -0.012462937710
    27    0.000516127647
    28   -0.001529979045
    29   -0.014915611886
    30   -0.037563294487
    31   -0.117568040459
    32   -0.121153234778
    33   -0.170030055106
    34    0.033866409159
    35    0.331389288055
    36    0.413787895764
    37   -0.081706715624
    38    0.001193041621
    39   -0.023133049150
    40   -0.022637688341
    41   -0.009049096073
    42    0.003196293261
    43   -0.008018531427
    44   -0.019621401836
    45   -0.071358796612
    46   -0.145051991927
    47   -0.135975877416
    48    0.037095646537
    49    0.368492100618
    50    0.358949324896
    51   -0.087240183019
    52    0.001812353138
    53   -0.023333864064
    54   -0.021888077683
    55    0.009022458216
    56    0.003589162793
Sym=        a    
Ene=  -0.47810041712287E-01
Spin=       Alpha
Occup=       0.0000000000
     1    0.105628418617
     2    0.270244349767
     3    0.934255071841
     4    0.152980167219
     5    0.152537726319
     6    0.286267730333
     7   -0.270406232816
     8   -0.291915175325
     9   -0.698029683628
    10   -0.007154142738
    11   -0.008644227260
    12   -0.010815990014
    13    0.000787148655