[Molden Format]
[Atoms] AU
   N     1    7      0.98265751     0.99683046     0.96848457
   N     2    7     -0.98265751    -0.98738183     0.98738183
   N     3    7     -0.98265751     0.97793320    -0.97793320
   N     4    7      0.98265751    -0.98738183    -0.97793320
[GTO]
    1  0
  s      5  0
  1712.84158530    -0.00539341
   257.64812677    -0.04022158
    58.45824585    -0.17931145
    16.19836791    -0.46376318
     5.00526008    -0.44171423
  s      1  0
     0.58731857     1.00000000
  s      1  0
     0.18764592     1.00000000
  p      3  0
    13.57147023    -0.04007240
     2.92573729    -0.21807045
     0.79927751    -0.51294466
  p      1  0
     0.21954348     1.00000000
  d      1  0
     1.00000000     1.00000000

    2  0
  s      5  0
  1712.84158530    -0.00539341
   257.64812677    -0.04022158
    58.45824585    -0.17931145
    16.19836791    -0.46376318
     5.00526008    -0.44171423
  s      1  0
     0.58731857     1.00000000
  s      1  0
     0.18764592     1.00000000
  p      3  0
    13.57147023    -0.04007240
     2.92573729    -0.21807045
     0.79927751    -0.51294466
  p      1  0
     0.21954348     1.00000000
  d      1  0
     1.00000000     1.00000000

    3  0
  s      5  0
  1712.84158530    -0.00539341
   257.64812677    -0.04022158
    58.45824585    -0.17931145
    16.19836791    -0.46376318
     5.00526008    -0.44171423
  s      1  0
     0.58731857     1.00000000
  s      1  0
     0.18764592     1.00000000
  p      3  0
    13.57147023    -0.04007240
     2.92573729    -0.21807045
     0.79927751    -0.51294466
  p      1  0
     0.21954348     1.00000000
  d      1  0
     1.00000000     1.00000000

    4  0
  s      5  0
  1712.84158530    -0.00539341
   257.64812677    -0.04022158
    58.45824585    -0.17931145
    16.19836791    -0.46376318
     5.00526008    -0.44171423
  s      1  0
     0.58731857     1.00000000
  s      1  0
     0.18764592     1.00000000
  p      3  0
    13.57147023    -0.04007240
     2.92573729    -0.21807045
     0.79927751    -0.51294466
  p      1  0
     0.21954348     1.00000000
  d      1  0
     1.00000000     1.00000000

[5D]
[9G]
[MO]
Sym=        a    
Ene=    -16.14069
Spin=       Alpha
Occup=    1.00000
     1    0.979172376944
     2   -0.033520274991
     3    0.020940971298
     4   -0.001984621840
     5   -0.002021297117
     6   -0.002758794655
     7   -0.004164871988
     8   -0.004220977980
     9   -0.004809866713
    10   -0.000027823012
    11    0.000001708596
    12    0.000004596333
    13   -0.000021370890
    14   -0.000010216795
    15    0.151532004900
    16   -0.005443855126
    17   -0.000830627827
    18    0.000312391878
    19    0.000318130649
    20   -0.000541961012
    21   -0.000703197043
    22   -0.000732146832
    23   -0.001581132152
    24   -0.000409917499
    25   -0.000106542733
    26   -0.000103930222
    27   -0.000009215874
    28    0.000699372873
    29    0.004788782016
    30   -0.000523883560
    31   -0.004566934869
    32    0.000007490934
    33   -0.000148357602
    34   -0.000015235277
    35   -0.001218360446
    36   -0.000891754227
    37   -0.001500868125
    38    0.000251939095
    39    0.000794994154
    40   -0.000218848208
    41    0.000327471208
    42   -0.000120306083
    43    0.004618975178
    44   -0.000497981744
    45   -0.004644169069
    46   -0.000143669209
    47    0.000021095268
    48   -0.000002042918
    49   -0.000833027713
    50   -0.001271387181
    51   -0.001521861812
    52    0.000239762434
    53   -0.000226263237
    54    0.000768814061
    55   -0.000319529134
    56   -0.000125866401
Sym=        a    
Ene=    -16.13958
Spin=       Alpha
Occup=    1.00000
     1   -0.151431593516
     2    0.004889208224
     3   -0.007422438242
     4    0.000303747737
     5    0.000308277991
     6    0.000305871566
     7    0.002029937278
     8    0.002052312739
     9   -0.000183415673
    10   -0.000424449898
    11    0.000095105011
    12    0.000093488754
    13   -0.000004315499
    14    0.000743604941
    15    0.979167734932
    16   -0.033389009288
    17    0.022122229743
    18    0.002016694017
    19    0.002052349081
    20   -0.002723481095
    21    0.004573656074
    22    0.004601326634
    23   -0.004580538066
    24    0.000087456484
    25    0.000008593371
    26    0.000014870817
    27   -0.000015654456
    28   -0.000228191805
    29    0.003452929190
    30   -0.000375309645
    31   -0.003357529304
    32    0.000146918485
    33    0.000021835493
    34    0.000002444158
    35    0.001276185225
    36    0.001557586712
    37   -0.001119627742
    38    0.000183417709
    39   -0.000009515758
    40   -0.000738267543
    41   -0.000430763612
    42   -0.000093132663
    43    0.003480061923
    44   -0.000375028149
    45   -0.003368642856
    46    0.000022192352
    47    0.000146030717
    48   -0.000001160706
    49    0.001551679067
    50    0.001275435810
    51   -0.001130677670
    52    0.000184462326
    53   -0.000738186850
    54   -0.000007311085
    55    0.000428969957
    56   -0.000092585931
Sym=        a    
Ene=    -16.09592
Spin=       Alpha
Occup=    1.00000
     1   -0.005461819630
     2   -0.000256660267
     3   -0.005460553028
     4   -0.000035215537
     5   -0.000104121586
     6    0.000043378382
     7    0.000681477439
     8   -0.000180000515
     9    0.001820233294
    10    0.000284910803
    11    0.000725715923
    12    0.000472003559
    13    0.000146234687
    14    0.000142638977
    15   -0.005468951736
    16   -0.000238052275
    17   -0.005524333248
    18    0.000100107180
    19    0.000047453463
    20    0.000030629111
    21    0.000150012248
    22   -0.000705565876
    23    0.001844194334
    24    0.000293876992
    25   -0.000465889352
    26   -0.000704784095
    27   -0.000139116491
    28    0.000132635319
    29    0.860307163118
    30   -0.028389955139
    31    0.016356768791
    32    0.002085018602
    33   -0.002036261344
    34    0.002018292552
    35    0.003221144907
    36   -0.003169907580
    37    0.004315778932
    38   -0.000244046576
    39   -0.000036009766
    40    0.000031954344
    41   -0.000007384842
    42   -0.000190841660
    43    0.492366201872
    44   -0.016395385647
    45    0.006992567095
    46   -0.001167137371
    47    0.001170118733
    48    0.001221927788
    49   -0.001044730331
    50    0.001037294812
    51    0.003021816810
    52   -0.000392678660
    53   -0.000045038681
    54    0.000040601871
    55   -0.000001212609
    56   -0.000551652360
Sym=        a    
Ene=    -16.09549
Spin=       Alpha
Occup=    1.00000
     1   -0.001361953625
     2   -0.000064689363
     3   -0.001481492677
     4   -0.000125299611
     5    0.000077941628
     6    0.000000451470
     7   -0.001483664868
     8    0.001639059532
     9    0.000485729521
    10    0.000070097052
    11   -0.000294369365
    12    0.000597617798
    13   -0.000523675443
    14    0.000032382976
    15   -0.001489058328
    16   -0.000070220154
    17   -0.001464170914
    18   -0.000077952343
    19    0.000118504114
    20    0.000008002475
    21   -0.001618794013
    22    0.001495678530
    23    0.000492722530
    24    0.000079528807
    25   -0.000602827846
    26    0.000282845330
    27    0.000510460119
    28    0.000037692230
    29   -0.492273408009
    30    0.015867818028
    31   -0.013765133921
    32   -0.001209074747
    33    0.001181727372
    34   -0.001002499827
    35   -0.003316566687
    36    0.003303682214
    37   -0.001309176839
    38   -0.000366811693
    39    0.000138830558
    40   -0.000134326026
    41    0.000005974870
    42   -0.000771023368
    43    0.860273333131
    44   -0.028003451165
    45    0.020062969279
    46   -0.002069868161
    47    0.002072350337
    48    0.001868921181
    49   -0.004457369126
    50    0.004470266587
    51    0.003280160898
    52    0.000198229681
    53    0.000126744417
    54   -0.000129131702
    55   -0.000002763164
    56    0.000571333726
Sym=        a    
Ene=     -2.04204
Spin=       Alpha
Occup=    1.00000
     1    0.138580771234
     2    0.289053419114
     3    0.072812456641
     4    0.080102266261
     5    0.080719051987
     6    0.088605300301
     7   -0.023234728960
     8   -0.023700448660
     9   -0.026373911507
    10   -0.000292654175
    11    0.011755878924
    12    0.012037358768
    13   -0.000011529509
    14    0.016518579411
    15    0.137689331287
    16    0.287298465917
    17    0.071863272833
    18   -0.079480000259
    19   -0.080293831873
    20    0.088598629055
    21    0.023040239754
    22    0.023222815322
    23   -0.026364222283
    24    0.000132486417
    25   -0.011788219656
    26   -0.012027384385
    27    0.000054917038
    28    0.016330008562
    29    0.123922414646
    30    0.251027762518
    31    0.054100840763
    32   -0.078417208657
    33    0.077078216745
    34   -0.076195741626
    35    0.021062975099
    36   -0.020970493245
    37    0.018688607258
    38    0.000089081933
    39    0.013472219635
    40   -0.013469128724
    41    0.000131607428
    42   -0.013737438661
    43    0.122911289415
    44    0.249014109013
    45    0.052895042802
    46    0.077194523965
    47   -0.077775540236
    48   -0.075019371229
    49   -0.020616220399
    50    0.020694181820
    51    0.018296676787
    52   -0.000059034127
    53   -0.013315565067
    54    0.013434849567
    55   -0.000106742869
    56   -0.013789727583
Sym=        a    
Ene=     -1.44147
Spin=       Alpha
Occup=    1.00000
     1    0.195704277163
     2    0.434931457770
     3    0.340658458117
     4   -0.053640559431
     5   -0.055804567336
     6    0.128585081604
     7   -0.032261411422
     8   -0.032484951688
     9   -0.082442239875
    10    0.014704180749
    11    0.004061415582
    12    0.004074153234
    13    0.000585778029
    14   -0.004393573169
    15   -0.199628903125
    16   -0.442982481871
    17   -0.347249904146
    18   -0.048505236040
    19   -0.049734589388
    20   -0.122695730754
    21   -0.034788526764
    22   -0.035104387243
    23    0.082896651470
    24   -0.014274155358
    25    0.003667150977
    26    0.003709627670
    27   -0.000643871957
    28    0.003647997006
    29    0.004326672667
    30    0.009489224190
    31    0.006004899918
    32   -0.123052191028
    33   -0.121130230838
    34    0.001250636403
    35    0.021982778110
    36    0.020165333401
    37    0.000430484943
    38   -0.000345057212
    39    0.014517904684
    40    0.014749613182
    41    0.024110773494
    42    0.000011059787
    43   -0.000292580277
    44   -0.000678419021
    45    0.000406167917
    46   -0.119170450339
    47   -0.121965954652
    48    0.004044314857
    49    0.020384446019
    50    0.021148256980
    51   -0.000650903719
    52   -0.000726978951
    53    0.014718664302
    54    0.014161974339
    55   -0.024022346832
    56   -0.000220815134
Sym=        a    
Ene=     -1.39653
Spin=       Alpha
Occup=    1.00000
     1    0.136198456614
     2    0.298392529045
     3    0.266994368014
     4    0.072029508778
     5    0.063321163385
     6   -0.137374357089
     7   -0.054327607416
     8   -0.052539865215
     9   -0.009662945541
    10   -0.023938088635
    11   -0.008103573668
    12   -0.009141810118
    13    0.000780831283
    14    0.019501075778
    15    0.129950457041
    16    0.284638037785
    17    0.253868458014
    18   -0.066978802540
    19   -0.077342141617
    20   -0.140609416798
    21    0.051297307822
    22    0.054064428942
    23   -0.007145280918
    24   -0.024292526186
    25    0.008986281777
    26    0.007965532452
    27   -0.000696068785
    28    0.019777823725
    29   -0.130275564128
    30   -0.280743882709
    31   -0.250940992437
    32    0.079866206932
    33   -0.083957981892
    34   -0.120732999622
    35   -0.055263809869
    36    0.055147068655
    37   -0.014328394956
    38    0.020336214698
    39    0.005305168919
    40   -0.004481839658
    41    0.000361345954
    42    0.018477464239
    43   -0.140455526795
    44   -0.302547683514
    45   -0.268175861320
    46   -0.082540957248
    47    0.077457094758
    48   -0.113792402538
    49    0.057693960968
    50   -0.057104567847
    51   -0.018065251897
    52    0.019361504847
    53   -0.004150523478
    54    0.004703678487
    55   -0.000440674979
    56    0.018106635853
Sym=        a    
Ene=     -1.37970
Spin=       Alpha
Occup=    1.00000
     1   -0.006009859359
     2   -0.013193085224
     3   -0.013655640692
     4    0.164774231007
     5   -0.164497397862
     6    0.003823737472
     7   -0.036612830317
     8    0.040456520715
     9    0.001600352334
    10    0.000686394221
    11    0.017971990669
    12   -0.017267856719
    13    0.025752778812
    14   -0.000213849506
    15   -0.002032848764
    16   -0.004399769359
    17   -0.003486383492
    18    0.166640310186
    19   -0.158450072772
    20    0.005510604947
    21   -0.039496208669
    22    0.036359018959
    23   -0.000848863215
    24    0.000839812302
    25    0.017371358948
    26   -0.017787054874
    27   -0.025644782853
    28   -0.000925336625
    29    0.186218854420
    30    0.400646475644
    31    0.359177424487
    32    0.032128561083
    33   -0.031515517875
    34   -0.100095000759
    35    0.047793209598
    36   -0.047108636311
    37    0.072658561949
    38    0.014779396387
    39    0.007903242032
    40   -0.008230140108
    41   -0.000233198228
    42    0.006649438142
    43   -0.178898399965
    44   -0.384692903053
    45   -0.343573567045
    46    0.037269998950
    47   -0.032956171430
    48    0.106478644539
    49    0.044087172483
    50   -0.045249810995
    51   -0.071275111821
    52   -0.015689354401
    53    0.008198475512
    54   -0.008784978706
    55    0.000355298249
    56   -0.007340049941
Sym=        a    
Ene=     -1.05184
Spin=       Alpha
Occup=    1.00000
     1   -0.089554684535
     2   -0.203575671477
     3   -0.184163050207
     4    0.278005672059
     5    0.274263987032
     6    0.073490656884
     7   -0.125105076162
     8   -0.122898417619
     9   -0.025823892058
    10   -0.009453951577
    11    0.020809101335
    12    0.020579897462
    13   -0.000542040581
    14    0.027282230055
    15   -0.089894135755
    16   -0.203137085409
    17   -0.192251268711
    18   -0.272005844520
    19   -0.267646885708
    20    0.069151581846
    21    0.119231619981
    22    0.116217985660
    23   -0.022472304634
    24   -0.010143667934
    25   -0.020926371982
    26   -0.020598220313
    27   -0.000536842151
    28    0.027596929856
    29   -0.035933308410
    30   -0.070150505643
    31   -0.103823439161
    32   -0.108903238482
    33    0.101868534919
    34   -0.126727152334
    35    0.040203210507
    36   -0.037815033943
    37    0.045024540718
    38    0.006246680033
    39    0.018033200711
    40   -0.017145491264
    41    0.000649388919
    42   -0.019988022556
    43   -0.035803289570
    44   -0.069840370216
    45   -0.104094451688
    46    0.102475261866
    47   -0.106249467617
    48   -0.124101624168
    49   -0.037858200612
    50    0.038686549469
    51    0.043732895176
    52    0.006038161677
    53   -0.017330779363
    54    0.017595817982
    55   -0.000485149189
    56   -0.019892646126
Sym=        a    
Ene=     -0.95680
Spin=       Alpha
Occup=    1.00000
     1    0.035157350296
     2    0.102397954518
     3    0.017303621792
     4   -0.162438985683
     5   -0.153809701691
     6    0.277971073404
     7    0.099367474988
     8    0.094455989062
     9   -0.129909525044
    10    0.025131543141
    11    0.014072055368
    12    0.015253245157
    13    0.000091715926
    14   -0.012856710589
    15    0.031007740136
    16    0.091115477508
    17    0.016578594226
    18    0.158621072643
    19    0.151294380182
    20    0.293213269787
    21   -0.094118996524
    22   -0.090229927019
    23   -0.138497046066
    24    0.027048096639
    25   -0.014517409302
    26   -0.015498018025
    27    0.000188137762
    28   -0.013724476707
    29   -0.091319682954
    30   -0.209251813920
    31   -0.174202643864
    32   -0.136285991725
    33    0.148193319526
    34   -0.172008536977
    35    0.067580469824
    36   -0.073595064001
    37    0.101482178499
    38   -0.012328908463
    39    0.016666424958
    40   -0.017620761718
    41   -0.000816145068
    42   -0.001833093680
    43   -0.091421401363
    44   -0.209461195350
    45   -0.174992882330
    46    0.144088124285
    47   -0.138684403200
    48   -0.170006057681
    49   -0.070906328660
    50    0.068898444749
    51    0.100196777766
    52   -0.012266548332
    53   -0.017213132777
    54    0.016942217646
    55    0.000614158765
    56   -0.001880984815
Sym=        a    
Ene=     -0.92099
Spin=       Alpha
Occup=    1.00000
     1   -0.094400567303
     2   -0.234206851250
     3   -0.097952195728
     4    0.133349841078
     5    0.103788882375
     6    0.329283116194
     7   -0.106287800332
     8   -0.091204372759
     9   -0.191451074626
    10    0.025803868131
    11    0.011922215488
    12    0.009988237938
    13    0.000983168443
    14   -0.004581832612
    15    0.098683462657
    16    0.244763482076
    17    0.106282618189
    18    0.130744549151
    19    0.128619227935
    20   -0.319211416717
    21   -0.104625263603
    22   -0.104376023796
    23    0.186436250246
    24   -0.023747466448
    25    0.010457927207
    26    0.011412674490
    27   -0.000500650504
    28    0.002925419687
    29   -0.007061782730
    30   -0.016601018525
    31   -0.014423206461
    32   -0.191722954496
    33   -0.175755799048
    34   -0.011566825823
    35    0.090763893548
    36    0.081804406003
    37    0.005870962648
    38   -0.000119690377
    39    0.010519610673
    40    0.009758465210
    41    0.033366388627
    42    0.000271960640
    43    0.002665975745
    44    0.006388564393
    45    0.004598108002
    46   -0.173102192379
    47   -0.169391325123
    48    0.009577744771
    49    0.080931978329
    50    0.077546363136
    51   -0.004809526997
    52   -0.001192062213
    53    0.009003907284
    54    0.008416257378
    55   -0.032638751655
    56    0.000191239493
Sym=        a    
Ene=     -0.91204
Spin=       Alpha
Occup=    1.00000
     1   -0.003859351024
     2   -0.009625780629
     3   -0.003752874448
     4   -0.211153847045
     5    0.218092968559
     6    0.009782881354
     7    0.103172033462
     8   -0.110133392814
     9   -0.006003269119
    10    0.001072680876
    11   -0.009989770804
    12    0.010286659618
    13   -0.028551307408
    14   -0.000101573905
    15    0.005459477387
    16    0.013258504102
    17    0.007508429065
    18   -0.186120829322
    19    0.191790245857
    20   -0.017755058132
    21    0.089057529473
    22   -0.094471569308
    23    0.010369218068
    24   -0.000908960127
    25   -0.007288964160
    26    0.008450520401
    27    0.028015200192
    28    0.000911031266
    29    0.117336054657
    30    0.282672706715
    31    0.188899957715
    32    0.106720595495
    33   -0.101366649608
    34    0.278988015739
    35   -0.077700113506
    36    0.073851875772
    37   -0.159055488388
    38   -0.015640587113
    39   -0.009510593095
    40    0.007486540719
    41    0.000770616886
    42   -0.000831514781
    43   -0.120185578757
    44   -0.289332322274
    45   -0.194623727336
    46    0.098712308034
    47   -0.131691531880
    48   -0.268257884283
    49   -0.073215887565
    50    0.090505328287
    51    0.153119399229
    52    0.014504168043
    53   -0.006805044484
    54    0.009752772108
    55   -0.001941545368
    56   -0.000660273162
Sym=        a    
Ene=     -0.90209
Spin=       Alpha
Occup=    1.00000
     1    0.001603331918
     2    0.004436073164
     3    0.000050902602
     4    0.262769399107
     5   -0.273427281296
     6    0.003861674270
     7   -0.151547783707
     8    0.160019893553
     9   -0.001854880752
    10   -0.000204202112
    11    0.027354953877
    12   -0.026728727760
    13    0.006383823672
    14   -0.000912777028
    15   -0.002592473752
    16   -0.006480475427
    17   -0.000942825970
    18   -0.287948038154
    19    0.286862944385
    20    0.019943333685
    21    0.166645077890
    22   -0.163501269813
    23   -0.012479316675
    24    0.000936236274
    25   -0.028746502053
    26    0.027027308722
    27    0.009525735367
    28   -0.001153036025
    29    0.006277145762
    30    0.015670122678
    31    0.007125190861
    32   -0.185373421763
    33   -0.215993337104
    34    0.001772260176
    35    0.107554061104
    36    0.127999434388
    37   -0.002659897863
    38   -0.000072095897
    39    0.024319801794
    40    0.024163011286
    41    0.010429952629
    42    0.001893342130
    43   -0.003754050763
    44   -0.009117597729
    45   -0.005174121963
    46    0.203949149091
    47    0.215496189171
    48   -0.027209428175
    49   -0.119823910726
    50   -0.124104023449
    51    0.015486898193
    52    0.002081881937
    53   -0.025698022237
    54   -0.023712412359
    55    0.012510587512
    56    0.001510541021
Sym=        a    
Ene=     -0.88464
Spin=       Alpha
Occup=    1.00000
     1   -0.036581574116
     2   -0.089332188481
     3   -0.042899969076
     4   -0.009383333283
     5    0.024667906533
     6    0.197773508830
     7    0.003060365140
     8   -0.016822100837
     9   -0.135734157067
    10   -0.004378982916
    11    0.009379155766
    12    0.012276286789
    13   -0.000796316853
    14   -0.019069417666
    15   -0.035983034691
    16   -0.087889697922
    17   -0.043682638820
    18    0.005599947170
    19   -0.011026088156
    20    0.196218270869
    21   -0.002121549835
    22    0.008356290598
    23   -0.134320649879
    24   -0.004292740944
    25   -0.009658090029
    26   -0.012068025144
    27    0.000264308818
    28   -0.019005927407
    29    0.046895127815
    30    0.111241959058
    31    0.067391521510
    32    0.260568938850
    33   -0.243829558787
    34   -0.233652255197
    35   -0.156357665170
    36    0.145315265827
    37    0.121451194015
    38    0.023896788455
    39    0.010109324692
    40   -0.012266640518
    41   -0.000448672765
    42    0.033070667005
    43    0.042889058721
    44    0.101278662274
    45    0.062954978716
    46   -0.259996320375
    47    0.235149390716
    48   -0.244562250052
    49    0.154063328297
    50   -0.139329943696
    51    0.128221741680
    52    0.024455405174
    53   -0.010337384138
    54    0.012858820251
    55   -0.000835222482
    56    0.033011317542
Sym=        a    
Ene=     -0.18818
Spin=       Alpha
Occup=    0.00000
     1    0.027774600647
     2    0.056732501903
     3    0.181022524169
     4    0.248763239487
     5    0.234300180026
     6   -0.351102912897
     7   -0.309122248299
     8   -0.292342630829
     9    0.398150738657
    10   -0.000759966821
    11    0.011898091644
    12    0.012472841732
    13   -0.000439772486
    14   -0.014998290439
    15   -0.026411776368
    16   -0.054358010656
    17   -0.175369487686
    18    0.246877691975
    19    0.240630091286
    20    0.348734712936
    21   -0.307042710066
    22   -0.299028042458
    23   -0.393730937797
    24    0.000298437795
    25    0.011679085161
    26    0.012031833772
    27    0.000375147021
    28    0.014946164538
    29   -0.001204467626
    30   -0.002961691523
    31   -0.006790274874
    32   -0.173038970719
    33   -0.167761358102
    34    0.016722276586
    35    0.186208245326
    36    0.181805440411
    37   -0.019460366993
    38    0.000004127366
    39   -0.000107060357
    40    0.000147997517
    41    0.006410085787
    42    0.000229493797
    43    0.000123830690
    44   -0.000101197181
    45    0.004428549520
    46   -0.177299117109
    47   -0.171489245970
    48   -0.009813555140
    49    0.190687750237
    50    0.186447936997
    51    0.011743984790
    52    0.000202574053
    53    0.000011582051
    54   -0.000068045730
    55   -0.006486271389
    56   -0.000028581217
Sym=        a    
Ene=     -0.14295
Spin=       Alpha
Occup=    0.00000
     1   -0.001175765848
     2   -0.003434184301
     3   -0.007168474388
     4    0.127164067486
     5   -0.129115840574
     6   -0.005643668561
     7   -0.147455763376
     8    0.150724737101
     9    0.008985702401
    10   -0.000016165322
    11   -0.005000764484
    12    0.005441094556
    13    0.000127941467
    14   -0.000616029816
    15   -0.000391964573
    16   -0.001154338095
    17   -0.005833749585
    18   -0.310821442960
    19    0.316210985924
    20   -0.001221211139
    21    0.374438490036
    22   -0.382209967803
    23    0.004230655712
    24    0.000335048525
    25    0.010811053339
    26   -0.010886864994
    27   -0.005593527835
    28   -0.000144702903
    29    0.004959963083
    30    0.011054639502
    31    0.037183623676
    32    0.326401928039
    33    0.170952289589
    34   -0.196677815314
    35   -0.399580906882
    36   -0.219608709749
    37    0.244822955505
    38    0.001252259865
    39    0.002555702801
    40    0.005461465296
    41   -0.002434810797
    42   -0.004801267256
    43   -0.003231790681
    44   -0.007431419797
    45   -0.021342622172
    46   -0.170804402013
    47   -0.334414798188
    48    0.190010071812
    49    0.218916048686
    50    0.410326566565
    51   -0.231167042793
    52   -0.001450122711
    53   -0.005298702823
    54   -0.002806340640
    55   -0.002480455582
    56    0.004076791717
Sym=        a    
Ene=     -0.14158
Spin=       Alpha
Occup=    0.00000
     1    0.004041519131
     2    0.010241305481
     3    0.028308465539
     4   -0.275946573305
     5    0.301776352373
     6   -0.002060567693
     7    0.333230584155
     8   -0.373159875401
     9   -0.000555250236
    10   -0.000154903723
    11    0.009760485130
    12   -0.008769388172
    13    0.007755307964
    14   -0.000165587889
    15   -0.001318012973
    16   -0.002942455164
    17   -0.009426000280
    18   -0.040344963847
    19    0.058007838422
    20    0.010988237218
    21    0.051093841642
    22   -0.079667653065
    23   -0.016811776095
    24   -0.000264411753
    25    0.001420022471
    26    0.000200006417
    27   -0.004021394164
    28    0.001177161458
    29    0.004781826249
    30    0.010145607612
    31    0.039390789681
    32    0.012561759758
    33   -0.292002102515
    34   -0.344999809204
    35   -0.006796008627
    36    0.350627024678
    37    0.422980337682
    38    0.002566438983
    39   -0.004332844116
    40    0.000908790269
    41    0.001558640149
    42   -0.007677134723
    43   -0.007552379379
    44   -0.016902475916
    45   -0.059019552534
    46    0.282121017319
    47   -0.010547232659
    48    0.356463537588
    49   -0.342971271088
    50   -0.001309559565
    51   -0.443949548924
    52   -0.002218664085
    53   -0.000278084144
    54    0.005116567752
    55    0.000921687418
    56    0.008667980456
Sym=        a    
Ene=     -0.06014
Spin=       Alpha
Occup=    0.00000
     1   -0.121171034416
     2   -0.312650688224
     3   -0.966749352075
     4   -0.224055492507
     5   -0.223446015770
     6   -0.178449501842
     7    0.519565769629
     8    0.527875242214
     9    0.228890321832
    10   -0.009332923727
    11   -0.015867544156
    12   -0.015529410966
    13   -0.000486131566
    14    0.009636446490
    15    0.142488952026
    16    0.367493457739
    17    1.152330723199
    18   -0.250955569012
    19   -0.258086718630
    20    0.248696501673
    21    0.563505636480
    22    0.582529576904
    23   -0.398907376689
    24    0.007611802906
    25   -0.013197453584
    26   -0.012462937710
    27    0.000516127647
    28   -0.001529979044
    29   -0.014915611887
    30   -0.037563294488
    31   -0.117568040458
    32   -0.121153234778
    33   -0.170030055106
    34    0.033866409160
    35    0.331389288054
    36    0.413787895763
    37   -0.081706715625
    38    0.001193041621
    39   -0.023133049150
    40   -0.022637688341
    41   -0.009049096073
    42    0.003196293261
    43   -0.008018531428
    44   -0.019621401837
    45   -0.071358796613
    46   -0.145051991928
    47   -0.135975877416
    48    0.037095646538
    49    0.368492100618
    50    0.358949324895
    51   -0.087240183020
    52    0.001812353138
    53   -0.023333864064
    54   -0.021888077683
    55    0.009022458217
    56    0.003589162793
Sym=        a    
Ene=     -0.04781
Spin=       Alpha
Occup=    0.00000
     1    0.105628418618
     2    0.270244349768
     3    0.934255071842
     4    0.152980167221
     5    0.152537726320
     6    0.286267730334
     7   -0.270406232819
     8   -0.291915175325
     9   -0.698029683626
    10   -0.007154142738
    11   -0.008644227260
    12   -0.010815990014
    13    0.000787148655
    14    0.030668119224
    15    0.072990682706
    16    0.186098864066
    17    0.659030612921
    18   -0.104138688391
    19   -0.085421646782
    20    0.233371003522
    21    0.165076920291
    22    0.114845901590
    23   -0.615435609027
    24   -0.009615788439
    25    0.014189173028
    26    0.010661413024
    27   -0.001260549378
    28    0.032074872091
    29   -0.084456411708
    30   -0.210681003781
    31   -0.733044258156
    32    0.122239447196
    33   -0.072836019069
    34    0.273135352935
    35   -0.212872806348
    36    0.094359731552
    37   -0.678058440152
    38    0.011258693750
    39    0.005870596293
    40   -0.000059351997
    41    0.001122521928
    42    0.028656153138
    43   -0.101101483780
    44   -0.252063015461
    45   -0.867431670352
    46   -0.127200212942
    47    0.153416945599
    48    0.283422331946
    49    0.200654151847
    50   -0.282245939160