[Molden Format]
[Title]
 Molden file created by orca_2mkl for BaseName=./N4

[Atoms] AU
N    1   7          0.9826575896         1.0015548510         0.9637603283 
N    2   7         -0.9826575896        -0.9826575896         0.9826575896 
N    3   7         -0.9826575896         0.9826575896        -0.9826575896 
N    4   7          0.9826575896        -0.9826575896        -0.9826575896 
[GTO]
  1 0
s   5 1.0 
     1712.8415853000        -1.0337585405
      257.6481267700        -1.8620740805
       58.4582458530        -2.7290401880
       16.1983679050        -2.6956734544
        5.0052600809        -1.0640914367
s   1 1.0 
        0.5873185657         0.4781513534
s   1 1.0 
        0.1876459225         0.2031956662
p   3 1.0 
       13.5714702330        -2.1850243557
        2.9257372874        -1.7466999024
        0.7992775075        -0.8114650516
p   1 1.0 
        0.2195434803         0.2142105067
d   1 1.0 
        1.0000000000         2.8508218814

  2 0
s   5 1.0 
     1712.8415853000        -1.0337585405
      257.6481267700        -1.8620740805
       58.4582458530        -2.7290401880
       16.1983679050        -2.6956734544
        5.0052600809        -1.0640914367
s   1 1.0 
        0.5873185657         0.4781513534
s   1 1.0 
        0.1876459225         0.2031956662
p   3 1.0 
       13.5714702330        -2.1850243557
        2.9257372874        -1.7466999024
        0.7992775075        -0.8114650516
p   1 1.0 
        0.2195434803         0.2142105067
d   1 1.0 
        1.0000000000         2.8508218814

  3 0
s   5 1.0 
     1712.8415853000        -1.0337585405
      257.6481267700        -1.8620740805
       58.4582458530        -2.7290401880
       16.1983679050        -2.6956734544
        5.0052600809        -1.0640914367
s   1 1.0 
        0.5873185657         0.4781513534
s   1 1.0 
        0.1876459225         0.2031956662
p   3 1.0 
       13.5714702330        -2.1850243557
        2.9257372874        -1.7466999024
        0.7992775075        -0.8114650516
p   1 1.0 
        0.2195434803         0.2142105067
d   1 1.0 
        1.0000000000         2.8508218814

  4 0
s   5 1.0 
     1712.8415853000        -1.0337585405
      257.6481267700        -1.8620740805
       58.4582458530        -2.7290401880
       16.1983679050        -2.6956734544
        5.0052600809        -1.0640914367
s   1 1.0 
        0.5873185657         0.4781513534
s   1 1.0 
        0.1876459225         0.2031956662
p   3 1.0 
       13.5714702330        -2.1850243557
        2.9257372874        -1.7466999024
        0.7992775075        -0.8114650516
p   1 1.0 
        0.2195434803         0.2142105067
d   1 1.0 
        1.0000000000         2.8508218814

[5D]
[9G]
[MO]
 Sym=     1a
 Ene= -1.57527328360462E+01
 Spin= Alpha
 Occup= 2.000000
  1       0.502169995942
  2      -0.017093496042
  3       0.004755250128
  4      -0.001183030846
  5      -0.001196041456
  6      -0.001170891751
  7      -0.001375545709
  8      -0.001377191359
  9      -0.001392328823
 10      -0.000017635889
 11       0.000418320733
 12       0.000423241486
 13      -0.000008561221
 14       0.000432845722
 15       0.506779632884
 16      -0.017207417693
 17       0.004732737290
 18       0.001186316104
 19       0.001191949638
 20      -0.001197700374
 21       0.001338481336
 22       0.001338519233
 23      -0.001388787277
 24      -0.000005394055
 25      -0.000427267818
 26      -0.000418148300
 27      -0.000000655696
 28       0.000421915209
 29       0.482561740990
 30      -0.016488461597
 31       0.004410506608
 32       0.001145672410
 33      -0.001137497964
 34       0.001138987057
 35       0.001349060974
 36      -0.001332274468
 37       0.001330652570
 38       0.000003415265
 39       0.000443555366
 40      -0.000437201095
 41       0.000001498356
 42      -0.000422834470
 43       0.490734632718
 44      -0.016718921021
 45       0.004472102245
 46      -0.001158494352
 47       0.001163462043
 48       0.001151176794
 49      -0.001337752477
 50       0.001330210450
 51       0.001311753517
 52       0.000003006503
 53      -0.000440313586
 54       0.000433452622
 55      -0.000002100748
 56      -0.000416843424
 Sym=     1a
 Ene= -1.57520706446169E+01
 Spin= Alpha
 Occup= 2.000000
  1       0.596715307078
  2      -0.019611854771
  3       0.015013674616
  4      -0.001358395369
  5      -0.001374988841
  6      -0.001236947535
  7      -0.003567147088
  8      -0.003758583564
  9      -0.001597647046
 10       0.000364506176
 11      -0.000038202827
 12      -0.000071625399
 13       0.000024410883
 14      -0.000605256077
 15      -0.777901326256
 16       0.025518351115
 17      -0.019642936780
 18      -0.001729016945
 19      -0.001743611176
 20       0.001693911290
 21      -0.004178815736
 22      -0.004357505323
 23       0.003141668842
 24      -0.000199319118
 25      -0.000209615265
 26      -0.000251509934
 27      -0.000026002522
 28       0.000526357939
 29       0.128923486497
 30      -0.004250290049
 31       0.003208907534
 32       0.000168676409
 33      -0.000386420514
 34       0.000298179460
 35      -0.001082504321
 36      -0.002143767028
 37       0.000884374524
 38      -0.000070053789
 39       0.000378335429
 40       0.000540662900
 41       0.000526427479
 42      -0.000014790079
 43       0.065934240159
 44      -0.002163545290
 45       0.001557383671
 46      -0.000241962833
 47       0.000029970199
 48       0.000170498456
 49      -0.001740625660
 50      -0.001486138094
 51       0.000660533550
 52      -0.000102294246
 53       0.000524592687
 54       0.000378144759
 55      -0.000522731439
 56      -0.000071603241
 Sym=     1a
 Ene= -1.57520461493214E+01
 Spin= Alpha
 Occup= 2.000000
  1       0.490882220557
  2      -0.016109164348
  3       0.012472215414
  4      -0.001001555625
  5      -0.001126958704
  6      -0.001163133233
  7      -0.000985071889
  8      -0.002859888283
  9      -0.003527456230
 10      -0.000307026594
 11      -0.000123921903
 12      -0.000635131417
 13       0.000297409193
 14       0.000098160034
 15       0.306032435241
 16      -0.010019583580
 17       0.007743710288
 18       0.000696793275
 19       0.000575347798
 20      -0.000776293435
 21       0.001748311124
 22      -0.000117944712
 23      -0.002903780142
 24      -0.000391024726
 25       0.000592391067
 26       0.000073471434
 27      -0.000300904218
 28       0.000249699213
 29      -0.014027866990
 30       0.000456556892
 31      -0.000218786607
 32       0.000007638306
 33      -0.000046085423
 34      -0.000161981607
 35       0.000664224578
 36      -0.001127041404
 37      -0.001890194472
 38       0.000526775647
 39       0.000336412345
 40      -0.000200108518
 41       0.000076090382
 42       0.000530943633
 43      -0.804573002906
 44       0.026425605290
 45      -0.020201775658
 46       0.001759950818
 47      -0.001793521526
 48      -0.001832618172
 49       0.003459871282
 50      -0.003916487645
 51      -0.004606532950
 52       0.000176660571
 53      -0.000365230785
 54       0.000487264110
 55      -0.000071785306
 56      -0.000155878766
 Sym=     1a
 Ene= -1.57520270173460E+01
 Spin= Alpha
 Occup= 2.000000
  1      -0.364799221227
  2       0.011957955181
  3      -0.009312284123
  4       0.000894965828
  5       0.000704325296
  6       0.000867896476
  7       0.002847825457
  8       0.000138387509
  9       0.002498052752
 10       0.000198826575
 11       0.000667200198
 12      -0.000109941651
 13       0.000452962786
 14      -0.000023956864
 15      -0.163377332329
 16       0.005347262907
 17      -0.004241665663
 18      -0.000242248914
 19      -0.000421918311
 20       0.000430516524
 21       0.001021746030
 22      -0.001686028916
 23       0.001816963646
 24       0.000278688820
 25       0.000161941454
 26      -0.000596508115
 27      -0.000432831348
 28      -0.000198081466
 29       0.855913087746
 30      -0.028147453975
 31       0.021560124435
 32       0.001953329277
 33      -0.001885618082
 34       0.001926905005
 35       0.004542068127
 36      -0.004029241468
 37       0.004201361663
 38       0.000008542243
 39      -0.000437579720
 40       0.000277744807
 41      -0.000091303148
 42       0.000367917918
 43      -0.299636966842
 44       0.009837505568
 45      -0.007733956149
 46       0.000740928648
 47      -0.000710820459
 48      -0.000551133285
 49       0.002629074818
 50      -0.002161036750
 51       0.000205278251
 52      -0.000484538763
 53       0.000043643177
 54      -0.000176699842
 55       0.000079031410
 56      -0.000626492526
 Sym=     1a
 Ene= -1.66780476357454E+00
 Spin= Alpha
 Occup= 2.000000
  1       0.130043126386
  2       0.262056366909
  3       0.070310285809
  4       0.078555720984
  5       0.078620724330
  6       0.078461229197
  7      -0.021833509248
  8      -0.022034616703
  9      -0.021635816529
 10      -0.000183654349
 11       0.013337432991
 12       0.013386507542
 13      -0.000104448621
 14       0.013439863369
 15       0.129180216924
 16       0.260399778419
 17       0.069257776284
 18      -0.077406163522
 19      -0.077906428058
 20       0.078820333089
 21       0.021443273978
 22       0.021443284135
 23      -0.021655882202
 24       0.000114492747
 25      -0.013385520662
 26      -0.013423744339
 27      -0.000102247420
 28       0.013219811389
 29       0.130905743644
 30       0.263708895145
 31       0.071429481579
 32      -0.079690970682
 33       0.078243544707
 34      -0.079172969507
 35       0.022253684400
 36      -0.022024923709
 37       0.022248094992
 38      -0.000033499910
 39       0.013558875039
 40      -0.013350316559
 41       0.000153361280
 42      -0.013387920792
 43       0.130031963378
 44       0.262033613081
 45       0.070330965990
 46       0.078540493372
 47      -0.079041545441
 48      -0.078023555690
 49      -0.021840601866
 50       0.021845460548
 51       0.021839935028
 52      -0.000180106579
 53      -0.013350335873
 54       0.013386347440
 55      -0.000103820564
 56      -0.013426192184
 Sym=     1a
 Ene= -1.04590856677651E+00
 Spin= Alpha
 Occup= 2.000000
  1       0.159545247133
  2       0.338203397331
  3       0.307851611374
  4       0.029924524764
  5      -0.102396985798
  6       0.094465043031
  7      -0.042950001484
  8      -0.008859070230
  9      -0.059967074611
 10       0.012958770646
 11       0.014161560806
 12       0.000035525700
 13       0.011435867505
 14      -0.007102099875
 15      -0.171029096540
 16      -0.362431488902
 17      -0.329760932403
 18       0.034341229305
 19      -0.095788586679
 20      -0.082498869456
 21      -0.046534462913
 22      -0.012898933448
 23       0.059909957986
 24      -0.011380259525
 25       0.013531965377
 26      -0.000550970463
 27      -0.011250228124
 28       0.005738515591
 29       0.093530678399
 30       0.198282072026
 31       0.180943410772
 32      -0.107924467248
 33      -0.139422581189
 34      -0.041943370989
 35       0.049080224727
 36       0.015628683678
 37       0.031687977155
 38       0.005592217974
 39       0.016640157037
 40       0.010141449492
 41       0.021341626996
 42       0.003135940716
 43      -0.083400188620
 44      -0.176694183719
 45      -0.161629863738
 46      -0.100693416232
 47      -0.142961825643
 48       0.053129622090
 49       0.045006250311
 50       0.018489967430
 51      -0.032499313278
 52      -0.007458380449
 53       0.017011368403
 54       0.009228341778
 55      -0.021216363706
 56      -0.004078040795
 Sym=     1a
 Ene= -1.04246955788549E+00
 Spin= Alpha
 Occup= 2.000000
  1       0.043940762158
  2       0.093151747628
  3       0.085548739269
  4      -0.156330660138
  5       0.080797432648
  6       0.080152982918
  7       0.031303938506
  8      -0.030879922103
  9      -0.031157257728
 10       0.011710159782
 11      -0.007815665003
 12       0.017620187843
 13      -0.020555060073
 14      -0.008020214446
 15      -0.121144758049
 16      -0.256825278072
 17      -0.234947666334
 18      -0.115325342815
 19       0.120427959314
 20      -0.007435959630
 21       0.003504746613
 22      -0.058412978385
 23       0.029117193619
 24      -0.000408919993
 25      -0.010913967421
 26       0.014591331462
 27       0.020344402805
 28      -0.001251711622
 29      -0.120553915755
 30      -0.255550775793
 31      -0.235527237707
 32      -0.115739668725
 33      -0.006471146460
 34       0.122150527292
 35       0.003218980069
 36       0.028621301049
 37      -0.059511911750
 38      -0.017663095779
 39      -0.001426953435
 40       0.014506351169
 41       0.010668481171
 42      -0.011069702894
 43       0.197759564814
 44       0.419228317280
 45       0.384935833722
 46      -0.074707732096
 47      -0.048811311897
 48      -0.046700599077
 49      -0.024592539286
 50       0.057312970982
 51       0.056323079798
 52       0.005827040470
 53       0.001774668866
 54       0.011474786417
 55      -0.010763638074
 56       0.001686241803
 Sym=     1a
 Ene= -1.03908109386356E+00
 Spin= Alpha
 Occup= 2.000000
  1       0.159063286795
  2       0.337219847107
  3       0.312272334687
  4       0.024808493218
  5       0.091892377409
  6      -0.105159322230
  7      -0.042736978050
  8      -0.060360232828
  9      -0.007783444757
 10      -0.016394277329
 11      -0.007489143821
 12      -0.000427622248
 13      -0.005882287621
 14       0.013732285625
 15       0.094604776119
 16       0.200547301085
 17       0.185234232728
 18      -0.106231568249
 19      -0.040491143360
 20      -0.137429820470
 21       0.049366469626
 22       0.032095118860
 23       0.015141119075
 24      -0.021186735893
 25       0.002511020658
 26       0.009704646592
 27       0.005567543544
 28       0.016462142300
 29      -0.170920497422
 30      -0.362471197159
 31      -0.335815028268
 32       0.032754012547
 33      -0.081612274790
 34      -0.099414750994
 35      -0.047635922531
 36       0.059778583399
 37      -0.012219521725
 38       0.015616354339
 39       0.006050068369
 40      -0.000769503879
 41       0.004163056017
 42       0.013436183151
 43      -0.081384869669
 44      -0.172632007111
 45      -0.159064448002
 46      -0.101084538213
 47       0.051664637196
 48      -0.146218251683
 49       0.044966798099
 50      -0.031936831353
 51       0.020760955878
 52       0.022095160729
 53      -0.004373651580
 54       0.009679136940
 55      -0.004243905721
 56       0.017031451951
 Sym=     1a
 Ene= -6.94095048054236E-01
 Spin= Alpha
 Occup= 2.000000
  1       0.064209787387
  2       0.128755462617
  3       0.184245912779
  4      -0.167069096106
  5      -0.169439817100
  6      -0.164708132210
  7       0.080981362486
  8       0.082462906327
  9       0.079514883357
 10       0.000469047260
 11      -0.020372838603
 12      -0.020774430418
 13       0.000274709807
 14      -0.021180200708
 15       0.064196802708
 16       0.128784663453
 17       0.184643063985
 18       0.165320509901
 19       0.166201440460
 20      -0.166144117941
 21      -0.080035341424
 22      -0.080272670713
 23       0.080102735032
 24      -0.000087302905
 25       0.020609379553
 26       0.020724277044
 27       0.000096161813
 28      -0.020732055899
 29       0.064207646127
 30       0.128689957355
 31       0.183767713537
 32       0.168841975978
 33      -0.167970904746
 34       0.167979931760
 35      -0.081970092528
 36       0.081870251341
 37      -0.081739534388
 38       0.000033193907
 39      -0.020834306360
 40       0.020834627296
 41      -0.000132005451
 42       0.020949386168
 43       0.064207835484
 44       0.128747750074
 45       0.184236177660
 46      -0.167045356878
 47       0.167945511881
 48       0.166202535545
 49       0.080971738667
 50      -0.081225891159
 51      -0.080757953970
 52       0.000163792953
 53       0.020663350317
 54      -0.020781549652
 55       0.000098121672
 56       0.020892959465
 Sym=     1a
 Ene= -5.78090769835596E-01
 Spin= Alpha
 Occup= 2.000000
  1       0.072107844326
  2       0.167317843631
  3       0.125733747012
  4      -0.041593874095
  5      -0.031753817704
  6      -0.295837516182
  7       0.048417556617
  8       0.043300074759
  9       0.185623149427
 10      -0.023969701889
 11      -0.008171836770
 12      -0.007409764653
 13      -0.000381558999
 14       0.004081660222
 15      -0.118339844792
 16      -0.274893352264
 17      -0.206073258947
 18      -0.165634525426
 19      -0.169543483293
 20       0.260847709023
 21       0.131515454326
 22       0.134612106365
 23      -0.183445606247
 24       0.008398338621
 25      -0.007156294114
 26      -0.007713100376
 27       0.000058022297
 28       0.003296332787
 29       0.023755284586
 30       0.055040649233
 31       0.041600657836
 32       0.245990629319
 33       0.110654578528
 34      -0.015882335429
 35      -0.141628788558
 36      -0.051201477461
 37       0.000412880645
 38       0.007847181016
 39      -0.008018162547
 40      -0.008323056020
 41      -0.028293221338
 42       0.003472347645
 43       0.021959672730
 44       0.050875770449
 45       0.038781531601
 46       0.105536436791
 47       0.234710636425
 48      -0.022415036492
 49      -0.048892945349
 50      -0.133680775112
 51       0.004499881936
 52       0.008067617612
 53      -0.007705386140
 54      -0.006956029421
 55       0.027903416623
 56       0.003594366290
 Sym=     1a
 Ene= -5.76975563968182E-01
 Spin= Alpha
 Occup= 2.000000
  1      -0.070517801839
  2      -0.163819886158
  3      -0.122157741442
  4       0.294425831263
  5       0.028706301609
  6       0.033260655791
  7      -0.184943676711
  8      -0.041392181394
  9      -0.043430728888
 10      -0.012516338108
 11       0.007891609003
 12      -0.004335291387
 13       0.020861662236
 14       0.007090820556
 15      -0.026101036030
 16      -0.060631911824
 17      -0.045542296452
 18       0.013049892429
 19      -0.236857369957
 20      -0.095580728365
 21       0.002583768400
 22       0.136374477706
 23       0.042047280592
 24      -0.019976440149
 25       0.006974240348
 26      -0.003864425777
 27      -0.020450695426
 28       0.006983893846
 29      -0.021887122955
 30      -0.050847169308
 31      -0.037560705940
 32       0.022593307686
 33      -0.113374290409
 34      -0.250187911209
 35      -0.004249785186
 36       0.053515436415
 37       0.144412030947
 38       0.028768482846
 39       0.008418115098
 40      -0.003670029799
 41       0.006697832845
 42       0.008727885140
 43       0.118496491867
 44       0.275309710435
 45       0.205156748712
 46      -0.256072748054
 47       0.181906337118
 48       0.160625785811
 49       0.181595188941
 50      -0.142525151107
 51      -0.129119669602
 52       0.004827808666
 53       0.006377270735
 54      -0.003480245083
 55      -0.006343470436
 56       0.008045998974
 Sym=     1a
 Ene= -5.75796351126430E-01
 Spin= Alpha
 Occup= 2.000000
  1      -0.070407642452
  2      -0.163793634016
  3      -0.120954601835
  4       0.025366793884
  5       0.292837690162
  6       0.032870909560
  7      -0.039756455342
  8      -0.184685421728
  9      -0.043585765799
 10      -0.011994046379
 11      -0.004325622113
 12       0.007496691365
 13      -0.021238530540
 14       0.006882864709
 15      -0.023708578180
 16      -0.055224288927
 17      -0.040600915130
 18      -0.240739268040
 19       0.018719450652
 20      -0.101605825172
 21       0.138866575204
 22      -0.000956852846
 23       0.046312093144
 24      -0.019927371575
 25      -0.004000500013
 26       0.007470638043
 27       0.020864402936
 28       0.007455137977
 29       0.118226972621
 30       0.274744031213
 31       0.203382663455
 32       0.174858003448
 33      -0.254478822850
 34       0.170183808865
 35      -0.138882954106
 36       0.181457510796
 37      -0.135429313995
 38       0.003973123812
 39      -0.003433922729
 40       0.006809109740
 41       0.006790382611
 42       0.007356110980
 43      -0.024623799734
 44      -0.057362651799
 45      -0.041794041173
 46      -0.106901198818
 47       0.014631132493
 48      -0.250246726963
 49       0.048958525498
 50       0.001543905417
 51       0.145514164673
 52       0.028286606697
 53      -0.003896829876
 54       0.008371261686
 55      -0.007085865950
 56       0.008072919757
 Sym=     1a
 Ene= -5.49742085451281E-01
 Spin= Alpha
 Occup= 2.000000
  1      -0.002080030169
  2      -0.005464193432
  3      -0.001287272539
  4      -0.185941724186
  5       0.258255830522
  6      -0.066013884181
  7       0.122171213597
  8      -0.172421317768
  9       0.042640582845
 10      -0.002423887036
 11      -0.025994432658
 12       0.019170297715
 13      -0.009076715786
 14       0.006965678852
 15       0.001232808941
 16       0.002726259222
 17       0.002021346435
 18       0.196686020532
 19      -0.263610002824
 20      -0.074892762537
 21      -0.130274396387
 22       0.173749416670
 23       0.049691706667
 24      -0.003043011579
 25       0.026507764261
 26      -0.019317788604
 27      -0.010131337438
 28       0.007108020653
 29      -0.001172109307
 30      -0.003225375745
 31      -0.000333354206
 32       0.186927811185
 33       0.256051620871
 34       0.062041923932
 35      -0.123384732351
 36      -0.170947391154
 37      -0.040581674874
 38      -0.001656276763
 39      -0.025866168014
 40      -0.019452533645
 41      -0.008662703203
 42      -0.007145633962
 43       0.002242146589
 44       0.005199586067
 45       0.003120224381
 46      -0.197593336504
 47      -0.259800827320
 48       0.076268723863
 49       0.131508690500
 50       0.171208416218
 51      -0.051199522741
 52      -0.002939472909
 53       0.026513941929
 54       0.019321081226
 55      -0.010070469403
 56      -0.006797661276
 Sym=     1a
 Ene= -5.44430884212175E-01
 Spin= Alpha
 Occup= 2.000000
  1       0.001754288301
  2       0.004712717765
  3       0.000708978806
  4      -0.194071050948
  5      -0.072820368896
  6       0.262529004720
  7       0.130939550505
  8       0.049811276449
  9      -0.174592564274
 10       0.009462718244
 11       0.007115391370
 12       0.019262660357
 13      -0.002499032687
 14      -0.026450186738
 15       0.001003407641
 16       0.002834654885
 17       0.000081866847
 18       0.193880745409
 19       0.076296249082
 20       0.264218792224
 21      -0.130208322330
 22      -0.051608809012
 23      -0.175696339769
 24       0.010157792024
 25      -0.006884915043
 26      -0.018977468510
 27      -0.002140063143
 28      -0.026572837705
 29      -0.001135009538
 30      -0.002489196505
 31      -0.001884028190
 32       0.184987367855
 33      -0.065360019185
 34      -0.257618309059
 35      -0.123849579567
 36       0.043667230018
 37       0.173212946160
 38       0.008413177972
 39       0.006955306849
 40      -0.019127868338
 41      -0.002530441215
 42       0.026040659262
 43      -0.001815931817
 44      -0.004206736307
 45      -0.002411969506
 46      -0.184744565228
 47       0.064070546949
 48      -0.260469037108
 49       0.123137189414
 50      -0.042291509121
 51       0.175094612311
 52       0.008470754008
 53      -0.007242134879
 54       0.019091517734
 55      -0.002521343345
 56       0.026026864535
 Sym=     1a
 Ene= 1.84002553139606E-01
 Spin= Alpha
 Occup= 0.000000
  1      -0.003962285440
  2      -0.009408625359
  3      -0.029963159437
  4      -0.257664859950
  5      -0.105494156623
  6       0.343298635105
  7       0.376707298648
  8       0.157205225614
  9      -0.490919884818
 10       0.000399311313
 11      -0.003230132499
 12      -0.007585879896
 13      -0.000080483055
 14       0.009750382482
 15       0.003308200926
 16       0.007773852610
 17       0.025876525641
 18      -0.180543074205
 19      -0.185196498070
 20      -0.341976076221
 21       0.265668662364
 22       0.271420972712
 23       0.490115219070
 24      -0.000033019082
 25      -0.005334924655
 26      -0.005428388363
 27      -0.000040284758
 28      -0.010068413052
 29       0.000709997552
 30       0.001698762439
 31       0.005191265192
 32       0.168121960659
 33       0.096553829048
 34      -0.076900146440
 35      -0.235580548236
 36      -0.134312089807
 37       0.111366550774
 38      -0.000097321511
 39       0.002073177503
 40       0.003923694949
 41      -0.000491043891
 42      -0.001994092256
 43      -0.000067147348
 44      -0.000109117135
 45      -0.001112935025
 46       0.245692289394
 47       0.174338030766
 48       0.071908885640
 49      -0.346899192828
 50      -0.245919315525
 51      -0.102517475924
 52      -0.000211289826
 53       0.004203411641
 54       0.006216083356
 55       0.000603451683
 56       0.002026661588
 Sym=     1a
 Ene= 1.86039994342509E-01
 Spin= Alpha
 Occup= 0.000000
  1       0.000734124442
  2       0.001740398950
  3       0.005603285601
  4      -0.006899146789
  5       0.046095776153
  6      -0.035507851930
  7       0.007637866906
  8      -0.066646987966
  9       0.050968355225
 10      -0.000231208305
 11       0.001068556490
 12       0.000340114581
 13       0.000288513851
 14      -0.001214445364
 15      -0.000524084483
 16      -0.001099609233
 17      -0.005679557803
 18      -0.262771427227
 19       0.302263128661
 20       0.035539154504
 21       0.376195249829
 22      -0.436090739354
 23      -0.050873227006
 24       0.000011517845
 25       0.008340607178
 26      -0.007134760140
 27       0.000166858593
 28       0.001091661239
 29      -0.000532327460
 30      -0.001120155180
 31      -0.005815200687
 32       0.265771616231
 33      -0.046135478790
 34      -0.307813765198
 35      -0.385965658240
 36       0.066938348895
 37       0.443602771193
 38       0.000487830571
 39      -0.001196669331
 40       0.007712830028
 41      -0.000193050948
 42      -0.008800433092
 43       0.000322139379
 44       0.000478828156
 45       0.005891343904
 46       0.010547661161
 47      -0.301115651156
 48       0.308873910913
 49      -0.017724406772
 50       0.434952382586
 51      -0.444653284432
 52      -0.000260197280
 53      -0.008397921428
 54       0.000433071895
 55      -0.000304320778
 56       0.008760177793
 Sym=     1a
 Ene= 1.87874358413588E-01
 Spin= Alpha
 Occup= 0.000000
  1      -0.003893419864
  2      -0.009217562831
  3      -0.029957724409
  4       0.251497439712
  5      -0.348284863021
  6       0.077191040909
  7      -0.357328534050
  8       0.506497030450
  9      -0.106194798394
 10       0.000057095222
 11      -0.009690102511
 12       0.006761112465
 13       0.000362804548
 14       0.001912098599
 15       0.000841958354
 16       0.002056720414
 17       0.005733663126
 18      -0.177610138486
 19       0.086520938439
 20      -0.085431923390
 21       0.262661441411
 22      -0.124146934419
 23       0.127769483958
 24       0.000267561355
 25       0.002578282980
 26      -0.005761786452
 27       0.000164163581
 28      -0.003005830769
 29       0.003085929003
 30       0.007223813882
 31       0.024841556999
 32       0.165615686915
 33       0.348769731264
 34       0.160831084620
 35      -0.233303636747
 36      -0.505461656316
 37      -0.227427722675
 38      -0.000302976420
 39       0.009334929243
 40       0.004317365731
 41      -0.000635153266
 42       0.004383157865
 43      -0.000023920798
 44      -0.000021156803
 45      -0.000611607667
 46      -0.263087847126
 47      -0.091970916901
 48      -0.170861255387
 49       0.386540065184
 50       0.134180877508
 51       0.251548222429
 52      -0.000013119677
 53      -0.002579362518
 54      -0.008061509554
 55       0.000092162504
 56      -0.005476787999
 Sym=     1a
 Ene= 2.82567020529451E-01
 Spin= Alpha
 Occup= 0.000000
  1      -0.114634212686
  2      -0.271708242400
  3      -1.108288357797
  4      -0.188432840973
  5      -0.230282423550
  6      -0.118729190278
  7       0.537598894502
  8       0.723587469315
  9       0.202239141422
 10      -0.008264775800
 11      -0.021723804290
 12      -0.011828059455
 13      -0.003306522105
 14       0.008066096153
 15       0.145706207928
 16       0.344242446652
 17       1.414639558124
 18      -0.222962151897
 19      -0.267832508026
 20       0.199945386035
 21       0.613152858116
 22       0.802787688170
 23      -0.468418647517
 24       0.005293852418
 25      -0.020454825201
 26      -0.010272787671
 27       0.003102996209
 28       0.000454616100
 29      -0.048922494659
 30      -0.116257552602
 31      -0.471633069103
 32      -0.013972142519
 33      -0.168641969845
 34       0.074294356075
 35       0.167076290645
 36       0.589569851321
 37      -0.203374150299
 38      -0.000007503946
 39      -0.024342591765
 40      -0.017171923127
 41      -0.012326227029
 42       0.003322086985
 43       0.017097602438
 44       0.040472642390
 45       0.165594535919
 46      -0.047334773834
 47      -0.130838434092
 48       0.003223001810
 49       0.236844356761
 50       0.508763417112
 51      -0.052564239580
 52       0.003723620393
 53      -0.025202756303
 54      -0.015976011254
 55       0.012201373688
 56       0.005476651758
 Sym=     1a
 Ene= 2.85925229273989E-01
 Spin= Alpha
 Occup= 0.000000
  1      -0.034489524253
  2      -0.081400354367
  3      -0.340010723143
  4       0.044351679835
  5      -0.105429093227
  6      -0.101241184929
  7      -0.284149127719
  8       0.369027678818
  9       0.364145103235
 10       0.005941238546
 11      -0.014114748722
 12       0.021815162448
 13      -0.011001051024
 14      -0.015050522391
 15      -0.067494371020
 16      -0.158878770902
 17      -0.667422923320
 18       0.161605422846
 19       0.013004254136
 20      -0.145313056583
 21      -0.537080068493
 22       0.111477008836
 23       0.458154708474
 24       0.004494460535
 25      -0.017706947000
 26       0.018222589271
 27       0.010895049424
 28      -0.013798097524
 29      -0.063828476034