[Molden Format]
[Title]
 Molden file created by orca_2mkl for BaseName=./N4

[Atoms] AU
N    1   7          1.2141712962        -0.0000000000         1.1929119035 
N    2   7         -1.3902703010         0.8023367264         0.5821232275 
N    3   7          0.5808227702         0.8023367264        -1.3773978299 
N    4   7         -0.4047237654        -1.6046734527        -0.3976373012 
[GTO]
  1 0
s   5 1.0 
     1712.8415853000        -1.0337585405
      257.6481267700        -1.8620740805
       58.4582458530        -2.7290401880
       16.1983679050        -2.6956734544
        5.0052600809        -1.0640914367
s   1 1.0 
        0.5873185657         0.4781513534
s   1 1.0 
        0.1876459225         0.2031956662
p   3 1.0 
       13.5714702330        -2.1850243557
        2.9257372874        -1.7466999024
        0.7992775075        -0.8114650516
p   1 1.0 
        0.2195434803         0.2142105067
d   1 1.0 
        1.0000000000         2.8508218814

  2 0
s   5 1.0 
     1712.8415853000        -1.0337585405
      257.6481267700        -1.8620740805
       58.4582458530        -2.7290401880
       16.1983679050        -2.6956734544
        5.0052600809        -1.0640914367
s   1 1.0 
        0.5873185657         0.4781513534
s   1 1.0 
        0.1876459225         0.2031956662
p   3 1.0 
       13.5714702330        -2.1850243557
        2.9257372874        -1.7466999024
        0.7992775075        -0.8114650516
p   1 1.0 
        0.2195434803         0.2142105067
d   1 1.0 
        1.0000000000         2.8508218814

  3 0
s   5 1.0 
     1712.8415853000        -1.0337585405
      257.6481267700        -1.8620740805
       58.4582458530        -2.7290401880
       16.1983679050        -2.6956734544
        5.0052600809        -1.0640914367
s   1 1.0 
        0.5873185657         0.4781513534
s   1 1.0 
        0.1876459225         0.2031956662
p   3 1.0 
       13.5714702330        -2.1850243557
        2.9257372874        -1.7466999024
        0.7992775075        -0.8114650516
p   1 1.0 
        0.2195434803         0.2142105067
d   1 1.0 
        1.0000000000         2.8508218814

  4 0
s   5 1.0 
     1712.8415853000        -1.0337585405
      257.6481267700        -1.8620740805
       58.4582458530        -2.7290401880
       16.1983679050        -2.6956734544
        5.0052600809        -1.0640914367
s   1 1.0 
        0.5873185657         0.4781513534
s   1 1.0 
        0.1876459225         0.2031956662
p   3 1.0 
       13.5714702330        -2.1850243557
        2.9257372874        -1.7466999024
        0.7992775075        -0.8114650516
p   1 1.0 
        0.2195434803         0.2142105067
d   1 1.0 
        1.0000000000         2.8508218814

[5D]
[9G]
[MO]
 Sym=     1a
 Ene= -1.57527328994443E+01
 Spin= Alpha
 Occup= 2.000000
  1      -0.502165912947
  2       0.017093361748
  3      -0.004755142472
  4       0.001457597711
  5       0.000000356535
  6       0.001440974571
  7       0.001679662389
  8       0.000007529653
  9       0.001704658768
 10      -0.000168579824
 11      -0.000636950086
 12       0.000003649526
 13      -0.000328226636
 14      -0.000000476421
 15      -0.506759711810
 16       0.017206763647
 17      -0.004732231019
 18      -0.001678818364
 19       0.000970936829
 20       0.000707892421
 21      -0.001891880728
 22       0.001113336662
 23       0.000832074153
 24       0.000247262566
 25       0.000347576727
 26      -0.000203493143
 27      -0.000277354307
 28       0.000484960150
 29      -0.482586991986
 30       0.016489290898
 31      -0.004411140480
 32       0.000674677369
 33       0.000934874361
 34      -0.001604670703
 35       0.000787004939
 36       0.001102241785
 37      -0.001879426532
 38      -0.000376284782
 39       0.000359623527
 40       0.000500531733
 41       0.000057476391
 42      -0.000204710271
 43      -0.490734552366
 44       0.016718917330
 45      -0.004472092892
 46      -0.000476760106
 47      -0.001890853889
 48      -0.000467261078
 49      -0.000540082543
 50      -0.002170839604
 51      -0.000524865923
 52       0.000315995148
 53      -0.000074577295
 54      -0.000300277011
 55       0.000531567280
 56      -0.000278180228
 Sym=     1a
 Ene= -1.57520706905624E+01
 Spin= Alpha
 Occup= 2.000000
  1      -0.596778836728
  2       0.019613928511
  3      -0.015015417151
  4       0.001685496312
  5      -0.000042780565
  6       0.001557000488
  7       0.004716265225
  8      -0.000725501363
  9       0.002576797361
 10      -0.000295546342
 11       0.000323693231
 12      -0.000079454862
 13       0.000482712705
 14      -0.000273698247
 15       0.777861797778
 16      -0.025517065324
 17       0.019641804818
 18       0.002447721835
 19      -0.001391352512
 20      -0.000985342105
 21       0.005956407764
 22      -0.002915120169
 23      -0.001529473034
 24       0.000283387704
 25       0.000079046020
 26      -0.000042241529
 27      -0.000414199917
 28       0.000405904014
 29      -0.128954590087
 30       0.004251303195
 31      -0.003209843835
 32       0.000310611295
 33       0.000173826102
 34      -0.000374304846
 35       0.002471977716
 36      -0.000369233450
 37      -0.000550737998
 38      -0.000190109990
 39      -0.000711546920
 40       0.000241798031
 41       0.000330922130
 42       0.000085371218
 43      -0.065764568811
 44       0.002157962737
 45      -0.001553243663
 46       0.000087517234
 47      -0.000278783763
 48      -0.000052909888
 49       0.002121427932
 50      -0.001082832682
 51      -0.000019053065
 52      -0.000141652957
 53      -0.000350462783
 54       0.000101856296
 55      -0.000325906446
 56      -0.000668998731
 Sym=     1a
 Ene= -1.57520462089910E+01
 Spin= Alpha
 Occup= 2.000000
  1      -0.490740054181
  2       0.016104498975
  3      -0.012468555627
  4       0.001321315976
  5       0.000117175821
  6       0.001365408611
  7       0.002665182504
  8       0.001803575653
  9       0.003350616856
 10       0.000182034879
 11       0.000418004662
 12       0.000403421842
 13      -0.000062389279
 14       0.000486458486
 15      -0.306162038422
 16       0.010023840522
 17      -0.007746900987
 18      -0.000880046842
 19       0.000651205798
 20       0.000470955492
 21      -0.000879648054
 22       0.002661726239
 23       0.001910266671
 24      -0.000025813496
 25      -0.000324601751
 26       0.000417095812
 27      -0.000559575771
 28      -0.000262611730
 29       0.013959368687
 30      -0.000454300875
 31       0.000217120391
 32       0.000023526828
 33       0.000091317396
 34       0.000139617498
 35       0.000574864520
 36       0.001774569127
 37       0.001343353127
 38      -0.000609607967
 39      -0.000063326974
 40      -0.000182924486
 41      -0.000407036014
 42       0.000378971331
 43       0.804611613595
 44      -0.026426865443
 45       0.020202812864
 46       0.000740025682
 47       0.002917507008
 48       0.000783617331
 49       0.001714592519
 50       0.006304963596
 51       0.002416953489
 52       0.000173443170
 53      -0.000188752886
 54      -0.000469993654
 55       0.000322931646
 56      -0.000201416376
 Sym=     1a
 Ene= -1.57520271072050E+01
 Spin= Alpha
 Occup= 2.000000
  1       0.364892183362
  2      -0.011961022870
  3       0.009314422415
  4      -0.000922486004
  5       0.000088869268
  6      -0.001091984174
  7      -0.001049588367
  8       0.001248767371
  9      -0.003422393539
 10      -0.000655651399
 11      -0.000203798332
 12       0.000432876385
 13       0.000082141813
 14       0.000192221906
 15       0.163384514460
 16      -0.005347511758
 17       0.004241631362
 18       0.000522592501
 19      -0.000201331085
 20      -0.000329311501
 21       0.001287303874
 22       0.000780636941
 23      -0.002218439609
 24      -0.000345794033
 25       0.000658563048
 26       0.000032000526
 27      -0.000271889003
 28      -0.000240953171
 29      -0.855895286047
 30       0.028146848427
 31      -0.021559868586
 32       0.001099931289
 33       0.001577987207
 34      -0.002717284576
 35       0.002208313905
 36       0.003638121463
 37      -0.006033445744
 38       0.000350335671
 39      -0.000186259560
 40      -0.000465065082
 41      -0.000111289873
 42       0.000162248434
 43       0.299570703059
 44      -0.009835344476
 45       0.007732075515
 46       0.000292090973
 47       0.001119919890
 48       0.000133659831
 49       0.000912300938
 50       0.002944529151
 51      -0.001455590709
 52       0.000253539263
 53       0.000251655002
 54       0.000569109723
 55       0.000362631570
 56      -0.000289226894
 Sym=     1a
 Ene= -1.66780438728212E+00
 Spin= Alpha
 Occup= 2.000000
  1       0.130043123662
  2       0.262056365218
  3       0.070310342984
  4       0.095994995948
  5      -0.000012050643
  6       0.096401924887
  7      -0.026863027869
  8      -0.000001390577
  9      -0.026621686846
 10       0.005714216283
 11       0.020082494219
 12      -0.000045814803
 13       0.010089463513
 14       0.000043063117
 15       0.129180212968
 16       0.260399774109
 17       0.069257831125
 18      -0.109729461939
 19       0.063574952342
 20       0.046812692529
 21       0.030254778708
 22      -0.017595163995
 23      -0.012793188678
 24      -0.007503654781
 25      -0.011219857849
 26       0.006473493267
 27       0.008780518423
 28      -0.015263099071
 29       0.130905745176
 30       0.263708904429
 31       0.071429544061
 32       0.046123523621
 33       0.064687949659
 34      -0.111486050313
 35      -0.013052508915
 36      -0.018078958362
 37       0.031274373196
 38       0.011443361924
 39      -0.011089914389
 40      -0.015527511219
 41      -0.002129105122
 42       0.006462314414
 43       0.130031961136
 44       0.262033612384
 45       0.070331024698
 46      -0.032473513009
 47      -0.128249552423
 48      -0.031644273548
 49       0.008894585536
 50       0.035667282496
 51       0.008941566893
 52      -0.009770710680
 53       0.002230600274
 54       0.008835526455
 55      -0.016672089167
 56       0.009014652854
 Sym=     1a
 Ene= -1.04590847603821E+00
 Spin= Alpha
 Occup= 2.000000
  1      -0.159545208161
  2      -0.338203306335
  3      -0.307851511144
  4       0.089768435638
  5       0.027671554368
  6      -0.107145575616
  7       0.019868709744
  8      -0.006970397416
  9       0.071245196969
 10      -0.020690141637
 11      -0.003238671239
 12       0.004910737394
 13       0.009228048373
 14       0.001362453079
 15       0.171029080979
 16       0.362431451303
 17       0.329760865932
 18       0.065256937309
 19       0.100825077075
 20       0.052313174885
 21       0.036317445920
 22      -0.057187405933
 23      -0.036492203088
 24       0.001510863490
 25      -0.004849992375
 26       0.010532207767
 27      -0.016242863871
 28      -0.008477196925
 29      -0.093530800189
 30      -0.198282328353
 31      -0.180943628264
 32       0.166636876585
 33      -0.014077547028
 34       0.069853569772
 35      -0.031184559058
 36       0.020756888248
 37      -0.047475547379
 38      -0.016167414647
 39      -0.019464076558
 40       0.008180383490
 41       0.008587147886
 42       0.009768378058
 43       0.083400289769
 44       0.176694390681
 45       0.161630047225
 46       0.175886248982
 47      -0.045541907062
 48      -0.019746272604
 49      -0.038186685514
 50       0.042466748597
 51       0.012727855059
 52      -0.001490240897
 53      -0.007805041203
 54       0.006128251142
 55      -0.013140834503
 56      -0.024971245049
 Sym=     1a
 Ene= -1.04246946891224E+00
 Spin= Alpha
 Occup= 2.000000
  1      -0.043940999356
  2      -0.093152244922
  3      -0.085549196957
  4      -0.002203637690
  5      -0.193351015598
  6      -0.001570240544
  7       0.012370790316
  8       0.050886104059
  9       0.012721987567
 10       0.001211492173
 11      -0.002576006980
 12      -0.022097116532
 13       0.002073228112
 14      -0.022244818165
 15       0.121144783007
 16       0.256825322865
 17       0.234947695148
 18      -0.063169973698
 19      -0.140291454499
 20       0.064698982204
 21       0.054391806948
 22       0.014821564896
 23      -0.033075989929
 24       0.006480026874
 25      -0.013225150239
 26      -0.004520495322
 27       0.019523208061
 28       0.011365014066
 29       0.120554042257
 30       0.255551040435
 31       0.235527461101
 32       0.064524528383
 33      -0.141726817025
 34      -0.064096375668
 35      -0.032932601356
 36       0.015239291088
 37       0.055266773297
 38       0.013787159797
 39      -0.013164139842
 40       0.011505420045
 41       0.015639645688
 42      -0.004522753870
 43      -0.197759478641
 44      -0.419228128971
 45      -0.384935625612
 46       0.070345495680
 47      -0.022006129826
 48       0.068644039302
 49      -0.036741090044
 50      -0.066471356736
 51      -0.035965263669
 52      -0.002232317172
 53      -0.007185276437
 54      -0.010169841771
 55      -0.004257468533
 56      -0.010455210513
 Sym=     1a
 Ene= -1.03908100796431E+00
 Spin= Alpha
 Occup= 2.000000
  1      -0.159063313599
  2      -0.337219898496
  3      -0.312272351727
  4      -0.103513330957
  5       0.025672438816
  6       0.093509648034
  7       0.071499027174
  8      -0.007075109260
  9       0.019189012379
 10       0.018520062946
 11      -0.002753798453
 12       0.001321575353
 13      -0.013205729086
 14       0.004637334801
 15      -0.094604860592
 16      -0.200547472937
 17      -0.185234378809
 18       0.067050932915
 19      -0.014101610016
 20       0.164672090004
 21      -0.047823550505
 22       0.021023405595
 23      -0.031101787246
 24       0.015619161180
 25      -0.018969533988
 26       0.009509822550
 27      -0.009531790248
 28       0.008140539513
 29       0.170920393670
 30       0.362470973012
 31       0.335814788330
 32       0.051426264058
 33       0.100647570522
 34       0.069585227212
 35      -0.036073559500
 36      -0.058310466018
 37       0.035924295870
 38      -0.015234007176
 39      -0.004583542369
 40      -0.008277842357
 41      -0.006878517407
 42       0.010488466546
 43       0.081385082138
 44       0.172632452637
 45       0.159064852154
 46      -0.019598838501
 47      -0.043933775345
 48       0.178753315827
 49       0.012671953502
 50       0.041277826940
 51      -0.040106811610
 52      -0.010440715086
 53      -0.008004590806
 54      -0.025283156253
 55      -0.007684471918
 56       0.006141575874
 Sym=     1a
 Ene= -6.94094944494203E-01
 Spin= Alpha
 Occup= 2.000000
  1      -0.064209780256
  2      -0.128755483487
  3      -0.184245879942
  4       0.206390489701
  5       0.000003949057
  6       0.202863651982
  7      -0.100373597855
  8      -0.000006129427
  9      -0.098009608074
 10       0.008486757278
 11       0.031166072847
 12       0.000108638121
 13       0.015879333735
 14      -0.000106760120
 15      -0.064196793058
 16      -0.128784677794
 17      -0.184643023542
 18      -0.233977400733
 19       0.134960238986
 20       0.097969175398
 21       0.113070581850
 22      -0.065279241034
 23      -0.047111389344
 24      -0.011626290268
 25      -0.017166435571
 26       0.009963604632
 27       0.013775602649
 28      -0.023773495836
 29      -0.064207643418
 30      -0.128689990163
 31      -0.183767678269
 32       0.099739336274
 33       0.137855234055
 34      -0.236615953601
 35      -0.048733125447
 36      -0.066981706731
 37       0.115072764020
 38       0.017651584307
 39      -0.017463073260
 40      -0.024014523592
 41      -0.003398577026
 42       0.010112373476
 43      -0.064207833087
 44      -0.128747782478
 45      -0.184236151756
 46      -0.068892347932
 47      -0.272807318818
 48      -0.067551009948
 49       0.033210240044
 50       0.132242821297
 51       0.032937013762
 52      -0.015031206684
 53       0.003465270128
 54       0.013724569081
 55      -0.025951337458
 56       0.013986343265
 Sym=     1a
 Ene= -5.78090750064985E-01
 Spin= Alpha
 Occup= 2.000000
  1      -0.072107748032
  2      -0.167317640803
  3      -0.125733552263
  4       0.017844378944
  5       0.099777229079
  6       0.282814844834
  7      -0.041519039492
  8      -0.053924680234
  9      -0.184508458152
 10       0.022191350478
 11       0.004043612227
 12       0.012081447049
 13      -0.005826654569
 14       0.004931364961
 15       0.118339837541
 16       0.274893370429
 17       0.206073110047
 18       0.246084021249
 19      -0.172514968097
 20      -0.184126447445
 21      -0.193151681993
 22       0.127318234228
 23       0.124705882523
 24      -0.002458621901
 25       0.008921733395
 26      -0.007696031891
 27      -0.000973612152
 28       0.006803405375
 29      -0.023755405486
 30      -0.055040937968
 31      -0.041600835270
 32      -0.202160018041
 33       0.162160104129
 34      -0.076443183284
 35       0.104205432007
 36      -0.094905221317
 37       0.053054140343
 38       0.002349430956
 39       0.016593847662
 40      -0.016122570808
 41      -0.017512142096
 42      -0.012657706621
 43      -0.021959633630
 44      -0.050875686882
 45      -0.038781382131
 46      -0.258312575441
 47      -0.000499194934
 48      -0.001951837320
 49       0.141777440609
 50       0.012816981608
 51       0.004025339894
 52      -0.005588035916
 53       0.001429116573
 54       0.000172840795
 55       0.015271029685
 56       0.026417093446
 Sym=     1a
 Ene= -5.76975539358394E-01
 Spin= Alpha
 Occup= 2.000000
  1      -0.070517720319
  2      -0.163819718130
  3      -0.122157490267
  4       0.142783684979
  5      -0.215099803569
  6       0.148194921531
  7      -0.108784670418
  8       0.116377095808
  9      -0.111471773789
 10      -0.001093384154
 11       0.008403287417
 12      -0.018531319096
 13      -0.001979341313
 14      -0.017437931530
 15      -0.026101012672
 16      -0.060631864212
 17      -0.045542280533
 18      -0.200851142547
 19      -0.146372753435
 20      -0.060342737633
 21       0.120979513024
 22       0.070730932268
 23       0.027087775738
 24      -0.012952752960
 25      -0.000664614559
 26      -0.010353522146
 27       0.022530507631
 28       0.012107971663
 29      -0.021887212760
 30      -0.050847384912
 31      -0.037560840883
 32      -0.070181505881
 33      -0.166870952977
 34      -0.207814545487
 35       0.033253457348
 36       0.084273450423
 37       0.124615527096
 38       0.027501399991
 39       0.000043915506
 40       0.012507836363
 41       0.001731909936
 42      -0.010826897898
 43       0.118496473834
 44       0.275309706464
 45       0.205156602925
 46       0.045864342310
 47       0.348920628198
 48       0.024791882828
 49      -0.043376664704
 50      -0.259170409028
 51      -0.030187776953
 52       0.006764598727
 53      -0.000375973158
 54       0.002094432428
 55       0.011435451720
 56      -0.000098008080
 Sym=     1a
 Ene= -5.75796339829741E-01
 Spin= Alpha
 Occup= 2.000000
  1       0.070407759362
  2       0.163793925198
  3       0.120954739581
  4      -0.273269013000
  5      -0.112257997097
  6      -0.014147491621
  7       0.179856613238
  8       0.060730262919
  9       0.039401940809
 10       0.016043091946
 11      -0.003649106281
 12      -0.005268515047
 13      -0.015625297280
 14      -0.013214096672
 15       0.023708465614
 16       0.055224032497
 17       0.040600711549
 18       0.071390408197
 19      -0.162724311970
 20       0.192493479774
 21      -0.051282392455
 22       0.094867730277
 23      -0.098994264739
 24       0.015886671432
 25      -0.015529538260
 26       0.012427548171
 27       0.007199673038
 28       0.016124045910
 29      -0.118226885741
 30      -0.274743870935
 31      -0.203382372131
 32       0.176092597023
 33       0.177184210618
 34      -0.248785818419
 35      -0.121113316617
 36      -0.132188380965
 37       0.195995320935
 38      -0.000236190261
 39      -0.008098728417
 40      -0.006540477996
 41       0.002039524610
 42       0.007847361937
 43       0.024623719859
 44       0.057362472333
 45       0.041793863021
 46       0.006591675986
 47       0.008904898040
 48       0.272291497254
 49      -0.007590934636
 50      -0.020061538892
 51      -0.152031644885
 52      -0.015664594027
 53      -0.002441794758
 54      -0.027244990268
 55      -0.002658277809
 56      -0.000281737081
 Sym=     1a
 Ene= -5.49742018307912E-01
 Spin= Alpha
 Occup= 2.000000
  1       0.002080030492
  2       0.005464196769
  3       0.001287279028
  4      -0.165175935334
  5      -0.230303182206
  6       0.159077201559
  7       0.110944482026
  8       0.152735119344
  9      -0.104098224845
 10       0.022904903734
 11      -0.007824012265
 12      -0.024154069449
 13       0.002013134758
 14      -0.002582948068
 15      -0.001232811938
 16      -0.002726263084
 17      -0.002021307456
 18       0.152361654009
 19       0.298786695371
 20      -0.036013749646
 21      -0.100134155376
 22      -0.197588148087
 23       0.023698983678
 24      -0.015683213772
 25       0.006995993414
 26       0.018908960896
 27      -0.023982296510
 28      -0.003264847618
 29       0.001172110465
 30       0.003225379576
 31       0.000333352300
 32      -0.302856195209
 33       0.022764681725
 34      -0.110061388808
 35       0.201699342209
 36      -0.014386779293
 37       0.072139281557
 38       0.015897569306
 39       0.029067756921
 40      -0.008152630797
 41       0.002492002922
 42       0.002441770483
 43      -0.002242146130
 44      -0.005199590626
 45      -0.003120273021
 46       0.323663826443
 47      -0.086407511563
 48      -0.011488067367
 49      -0.213909800022
 50       0.058382886901
 51       0.007892559523
 52      -0.011237481617
 53      -0.020535662288
 54       0.009282494178
 55      -0.004402543426
 56      -0.024062723551
 Sym=     1a
 Ene= -5.44430816758652E-01
 Spin= Alpha
 Occup= 2.000000
  1      -0.001754298999
  2      -0.004712738645
  3      -0.000708950915
  4       0.169943443213
  5      -0.235906561716
  6      -0.165394056122
  7      -0.115038594562
  8       0.157853453088
  9       0.109349572088
 10      -0.010179030929
 11      -0.007502487234
 12      -0.002828994460
 13       0.021206446741
 14      -0.024483921138
 15      -0.001003412669
 16      -0.002834670437
 17      -0.000081915260
 18      -0.123285378064
 19       0.019288222143
 20      -0.312491747679
 21       0.083297728084
 22      -0.013517668603
 23       0.208244187780
 24      -0.007090334854
 25       0.029052278747
 26       0.001606306739
 27       0.016070615392
 28      -0.008140640496
 29       0.001135015914
 30       0.002489212179
 31       0.001884049392
 32      -0.040243372429
 33       0.282896857031
 34       0.152345829172
 35       0.027095740448
 36      -0.189663721014
 37      -0.102673084035
 38      -0.011360569343
 39       0.006771138302
 40      -0.002013888489
 41      -0.025508128493
 42       0.018436931477
 43       0.001815941005
 44       0.004206756718
 45       0.002411968272
 46      -0.007604563802
 47      -0.070663879048
 48       0.317849767796
 49       0.004833435030
 50       0.046324403002
 51      -0.213166978632
 52       0.003091011646
 53      -0.020368598044
 54      -0.022974261897
 55      -0.011649868571
 56       0.009190870335
 Sym=     1a
 Ene= 1.84002375640037E-01
 Spin= Alpha
 Occup= 0.000000
  1      -0.003962278825
  2      -0.009408601843
  3      -0.029963096677
  4      -0.233140274488
  5       0.307465346775
  6       0.215603211937
  7       0.342515177353
  8      -0.443817884249
  9      -0.305504028534
 10      -0.001350219368
 11      -0.004196087374
 12       0.001938045998
 13       0.007810512906
 14      -0.008889584611
 15       0.003308196906
 16       0.007773852275
 17       0.025876426430
 18      -0.209451328529
 19      -0.067803690008
 20      -0.367932125043
 21       0.308449083000
 22       0.093977096596
 23       0.529612487223
 24      -0.002068660919
 25      -0.009674390137
 26      -0.001175968537
 27      -0.007254456536
 28       0.002724170643
 29       0.000709999473
 30       0.001698772406
 31       0.005191219413
 32       0.163415664100
 33      -0.129247964739
 34      -0.009586832892
 35      -0.228432940548
 36       0.182983943806
 37       0.016624009849
 38       0.000771672350
 39       0.003179161266
 40      -0.000273218987
 41      -0.001483277982
 42       0.003308076258
 43      -0.000067146962
 44      -0.000109109748
 45      -0.001112954608
 46       0.251605571516
 47      -0.100076907628
 48       0.150360352212
 49      -0.354943230506
 50       0.140993052263
 51      -0.213214888609
 52       0.001635658521
 53       0.007432175717
 54      -0.000164749276
 55       0.000774281920
 56       0.001511624088
 Sym=     1a
 Ene= 1.86039810970351E-01
 Spin= Alpha
 Occup= 0.000000
  1       0.000734130261
  2       0.001740410655
  3       0.005603338655
  4       0.042423715817
  5       0.009955178716
  6      -0.039171565600
  7      -0.062254145756
  8      -0.012636394231
  9       0.055342569426
 10       0.000586737056
 11       0.000335080846
 12      -0.001025600569
 13      -0.000760397726
 14       0.000884606233
 15      -0.000524090723
 16      -0.001099626911
 17      -0.005679604197
 18       0.164295304649
 19       0.352459206275
 20      -0.102246851894
 21      -0.238263220992
 22      -0.505964138834
 23       0.146685770473
 24       0.006332799042
 25      -0.002779298723
 26      -0.006954871136
 27       0.004930099096
 28      -0.001088693419
 29      -0.000532336077
 30      -0.001120176174
 31      -0.005815247169
 32       0.095331189006
 33      -0.361500587594
 34      -0.166557597156
 35      -0.138177515979
 36       0.523566667304
 37       0.238784088549
 38      -0.000962452635
 39       0.002956412500
 40       0.001525235021
 41      -0.008442657899
 42       0.007441164327
 43       0.000322146572
 44       0.000478839981
 45       0.005891421943
 46      -0.298440479747
 47      -0.005444684710
 48       0.311590677760
 49       0.429932823743
 50       0.010511342887
 51      -0.449734904950
 52      -0.006255436863
 53       0.000486162967
 54       0.006991953005
 55       0.003785773902
 56      -0.006710233473
 Sym=     1a
 Ene= 1.87874170752847E-01
 Spin= Alpha
 Occup= 0.000000
  1      -0.003893410902
  2      -0.009217544694
  3      -0.029957599889
  4      -0.221339610725
  5      -0.316020833122
  6       0.204086701321
  7       0.324738044106
  8       0.455180673445
  9      -0.287846618604
 10      -0.007215373659
 11       0.003150780435
 12       0.008211638229
 13      -0.003438168591
 14      -0.001469877567
 15       0.000841951888
 16       0.002056704040
 17       0.005733618748
 18       0.014377503610
 19       0.145462838801
 20      -0.157998790108
 21      -0.017939468107
 22      -0.212983426677
 23       0.234615635442
 24       0.002877059040
 25      -0.004956411931
 26      -0.004004883251
 27      -0.000030334340
 28       0.000309208322
 29       0.003085925637
 30       0.007223802965
 31       0.024841522835
 32       0.369088610292
 33       0.072819126812
 34       0.182774043954
 35      -0.532708787969
 36      -0.108709315406
 37      -0.256998979792
 38       0.004818229565
 39       0.008046185164
 40      -0.002870582306
 41       0.005154575069
 42       0.001649664789
 43      -0.000023921836
 44      -0.000021162932
 45      -0.000611616434
 46      -0.174512169825
 47       0.107509703135
 48      -0.254666082282
 49       0.255492238231
 50      -0.158135561181
 51       0.374714984460
 52      -0.000182524797
 53      -0.009385351571
 54      -0.002563696532
 55      -0.002628086730
 56      -0.000218111639
 Sym=     1a
 Ene= 2.82566813223273E-01
 Spin= Alpha
 Occup= 0.000000
  1       0.114634171917
  2       0.271708130636
  3       1.108286899192
  4       0.274704552711
  5      -0.011371322770
  6       0.164443572616
  7      -0.857119314290
  8       0.060980187278
  9      -0.339291343714
 10       0.019386412490
 11       0.013928773891
 12      -0.006133422893
 13      -0.005297719265
 14       0.010981765690
 15      -0.145706151490
 16      -0.344242304121
 17      -1.414637589460
 18       0.352965257113
 19      -0.154332963535
 20      -0.114111552060
 21      -1.023154644238
 22       0.364131050181
 23       0.245767632102
 24       0.007432159702
 25       0.015194702770
 26      -0.010894221515
 27       0.005641553073
 28       0.011187604298
 29       0.048922547111
 30       0.116257675087
 31       0.471633105792
 32       0.165916364756
 33       0.027109145924
 34      -0.076758805616
 35      -0.622843544794
 36      -0.021246887788
 37       0.168766901283
 38       0.015189450927
 39       0.024300643689
 40      -0.012701425027
 41      -0.006640874579
 42       0.004872342481
 43      -0.017097668956
 44      -0.040472784733
 45      -0.165595095035
 46       0.138440457083
 47       0.013450266249
 48       0.004799992772
 49      -0.563588222507
 50       0.007139520312
 51      -0.003929213171
 52       0.009905975621
 53       0.017346596422
 54      -0.009199573485
 55       0.007131949984
 56       0.023422503778
 Sym=     1a
 Ene= 2.85925020309024E-01
 Spin= Alpha
 Occup= 0.000000
  1      -0.034489372111
  2      -0.081400003884
  3      -0.340008821342
  4      -0.068170810454
  5      -0.120585943582
  6      -0.064373028931
  7       0.185220353027
  8       0.531323078267
  9       0.181416931920
 10      -0.008339217010
 11       0.004849127937
 12       0.018879577718
 13      -0.014684955240
 14       0.019819769793
 15      -0.067494384824
 16      -0.158878787509
 17      -0.667422442879
 18       0.091316463886
 19      -0.185965270150
 20      -0.066929757165
 21      -0.160598688114
 22       0.671074848254
 23       0.186155505979
 24      -0.008265317031
 25       0.006723251972
 26       0.012588847303
 27      -0.026455641347
 28       0.001729135666
 29      -0.063828555029