[Molden Format]
[Title]
 Molden file created by orca_2mkl for BaseName=./N4

[Atoms] AU
N    1   7          1.2141712962        -0.0000000000         1.1929119035 
N    2   7         -1.3902703010         0.8023367264         0.5821232275 
N    3   7          0.5808227702         0.8023367264        -1.3773978299 
N    4   7         -0.4047237654        -1.6046734527        -0.3976373012 
[GTO]
  1 0
s   5 1.0 
     1712.8415853000        -1.0337585405
      257.6481267700        -1.8620740805
       58.4582458530        -2.7290401880
       16.1983679050        -2.6956734544
        5.0052600809        -1.0640914367
s   1 1.0 
        0.5873185657         0.4781513534
s   1 1.0 
        0.1876459225         0.2031956662
p   3 1.0 
       13.5714702330        -2.1850243557
        2.9257372874        -1.7466999024
        0.7992775075        -0.8114650516
p   1 1.0 
        0.2195434803         0.2142105067
d   1 1.0 
        1.0000000000         2.8508218814

  2 0
s   5 1.0 
     1712.8415853000        -1.0337585405
      257.6481267700        -1.8620740805
       58.4582458530        -2.7290401880
       16.1983679050        -2.6956734544
        5.0052600809        -1.0640914367
s   1 1.0 
        0.5873185657         0.4781513534
s   1 1.0 
        0.1876459225         0.2031956662
p   3 1.0 
       13.5714702330        -2.1850243557
        2.9257372874        -1.7466999024
        0.7992775075        -0.8114650516
p   1 1.0 
        0.2195434803         0.2142105067
d   1 1.0 
        1.0000000000         2.8508218814

  3 0
s   5 1.0 
     1712.8415853000        -1.0337585405
      257.6481267700        -1.8620740805
       58.4582458530        -2.7290401880
       16.1983679050        -2.6956734544
        5.0052600809        -1.0640914367
s   1 1.0 
        0.5873185657         0.4781513534
s   1 1.0 
        0.1876459225         0.2031956662
p   3 1.0 
       13.5714702330        -2.1850243557
        2.9257372874        -1.7466999024
        0.7992775075        -0.8114650516
p   1 1.0 
        0.2195434803         0.2142105067
d   1 1.0 
        1.0000000000         2.8508218814

  4 0
s   5 1.0 
     1712.8415853000        -1.0337585405
      257.6481267700        -1.8620740805
       58.4582458530        -2.7290401880
       16.1983679050        -2.6956734544
        5.0052600809        -1.0640914367
s   1 1.0 
        0.5873185657         0.4781513534
s   1 1.0 
        0.1876459225         0.2031956662
p   3 1.0 
       13.5714702330        -2.1850243557
        2.9257372874        -1.7466999024
        0.7992775075        -0.8114650516
p   1 1.0 
        0.2195434803         0.2142105067
d   1 1.0 
        1.0000000000         2.8508218814

[5D]
[9G]
[MO]
 Sym=     1a
 Ene= -1.61271240313354E+01
 Spin= Alpha
 Occup= 1.000000
  1      -0.384641171936
  2       0.013233739628
  3      -0.004456207384
  4       0.001163592639
  5       0.000061750314
  6       0.001258519693
  7       0.000447670876
  8       0.000862848703
  9       0.002526322789
 10       0.000294459596
 11      -0.000390795736
 12       0.000140329725
 13      -0.000548847957
 14       0.000253596855
 15      -0.912553911146
 16       0.030766724708
 17      -0.017969029682
 18      -0.003159138219
 19       0.001802043613
 20       0.001377166921
 21      -0.005191445970
 22       0.003313701942
 23       0.002945032753
 24       0.000271995123
 25      -0.000022828638
 26       0.000047889914
 27      -0.000190095248
 28       0.000086779466
 29      -0.026945851817
 30       0.001349689439
 31       0.004810387290
 32       0.000036920663
 33       0.000174271504
 34      -0.000137741139
 35      -0.001037883858
 36       0.000756186735
 37       0.001335900098
 38      -0.000540287619
 39       0.000622234439
 40       0.000289176488
 41      -0.000280692212
 42      -0.000062724089
 43      -0.027879369087
 44       0.001364879433
 45       0.004871415544
 46      -0.000122502259
 47      -0.000200125380
 48       0.000007791762
 49      -0.000902044725
 50       0.001127698571
 51       0.001211463116
 52       0.000307052719
 53      -0.000040599429
 54      -0.000629451748
 55       0.000574724664
 56       0.000116071165
 Sym=     1a
 Ene= -1.61266171098183E+01
 Spin= Alpha
 Occup= 1.000000
  1       0.912798266676
  2      -0.030545915681
  3       0.021354652827
  4      -0.002745006746
  5      -0.000025503853
  6      -0.002673981175
  7      -0.005900387418
  8       0.000359049065
  9      -0.004932956682
 10       0.000072800030
 11      -0.000204696843
 12      -0.000040131779
 13      -0.000223196591
 14       0.000240773096
 15      -0.385362573778
 16       0.012639839588
 17      -0.012217981529
 18      -0.001303327201
 19       0.000697616524
 20       0.000458632558
 21      -0.004100281414
 22       0.001613148782
 23      -0.000107415449
 24      -0.000337776490
 25       0.000164804497
 26      -0.000037640355
 27       0.000546870060
 28      -0.000465609896
 29       0.012553855177
 30      -0.000605995056
 31      -0.001962078016
 32      -0.000164179160
 33      -0.000027715421
 34       0.000013264546
 35      -0.001993754061
 36       0.000433415902
 37      -0.001113807259
 38       0.000564101534
 39       0.000485179539
 40      -0.000417916218
 41      -0.000200880526
 42      -0.000097402957
 43       0.011616989364
 44      -0.000567473051
 45      -0.001970532084
 46      -0.000091777997
 47       0.000125518122
 48      -0.000035521173
 49      -0.002043546851
 50       0.000289240007
 51      -0.001055356535
 52       0.000037317244
 53       0.000454377715
 54       0.000302955059
 55       0.000126852373
 56       0.000649837254
 Sym=     1a
 Ene= -1.61182695833742E+01
 Spin= Alpha
 Occup= 1.000000
  1       0.028485573424
  2      -0.000534555133
  3       0.005854194826
  4       0.000007166783
  5      -0.000080594014
  6      -0.000058914771
  7      -0.000557137186
  8      -0.001373871315
  9      -0.001592080224
 10      -0.000332870542
 11      -0.000700944475
 12      -0.000278083139
 13      -0.000092552886
 14      -0.000392236955
 15       0.027299623409
 16      -0.000506229630
 17       0.005896288369
 18      -0.000033773080
 19      -0.000067385109
 20      -0.000058644009
 21       0.000354552805
 22      -0.001682520138
 23      -0.001390846755
 24       0.000176320229
 25       0.000535294645
 26      -0.000443618820
 27       0.000181897299
 28       0.000530530518
 29      -0.404232192747
 30       0.013785419574
 31      -0.005389183392
 32       0.000593150773
 33       0.000789338081
 34      -0.001465103128
 35       0.000578076132
 36      -0.000356611792
 37      -0.002921487767
 38       0.000249707746
 39       0.000165305075
 40       0.000490388177
 41       0.000344497325
 42      -0.000420959955
 43      -0.904061454828
 44       0.030273052240
 45      -0.018097798943
 46      -0.000934826924
 47      -0.003611571075
 48      -0.000817823851
 49      -0.001372407079
 50      -0.006275889376
 51      -0.002351750711
 52       0.000216548768
 53       0.000085518241
 54       0.000219747343
 55       0.000067316934
 56      -0.000134209541
 Sym=     1a
 Ene= -1.61178062614016E+01
 Spin= Alpha
 Occup= 1.000000
  1      -0.011253287030
  2       0.000210099029
  3      -0.002295332747
  4      -0.000055002294
  5      -0.000105301969
  6       0.000091137088
  7      -0.000672741952
  8      -0.001653735708
  9       0.001517265974
 10       0.000611556308
 11       0.000175792446
 12      -0.000517346984
 13      -0.000026720533
 14      -0.000307207009
 15      -0.009492386635
 16       0.000161845936
 17      -0.002213385329
 18      -0.000039626789
 19      -0.000106743905
 20       0.000074977236
 21      -0.001017701986
 22      -0.001543182944
 23       0.001410584118
 24       0.000240052953
 25      -0.000595689690
 26      -0.000109988955
 27       0.000530262126
 28       0.000156796370
 29       0.904384182055
 30      -0.030057053614
 31       0.021339262919
 32      -0.001308689199
 33      -0.001921591210
 34       0.002988226827
 35      -0.002680145485
 36      -0.004258049020
 37       0.005755031621
 38      -0.000034940517
 39       0.000196402837
 40       0.000239942085
 41       0.000267583234
 42      -0.000187059849
 43      -0.404930101352
 44       0.013216618905
 45      -0.012338250761
 46      -0.000436550809
 47      -0.001568472447
 48      -0.000229050309
 49      -0.001463177797
 50      -0.004152522944
 51       0.000740663121
 52      -0.000284657547
 53      -0.000124057094
 54      -0.000327424122
 55      -0.000535046648
 56       0.000458315842
 Sym=     1a
 Ene= -2.05006172703871E+00
 Spin= Alpha
 Occup= 1.000000
  1      -0.132408973474
  2      -0.273093768000
  3      -0.065252213328
  4      -0.100249564074
  5      -0.000084983096
  6      -0.097929533807
  7       0.028999088558
  8       0.000240492341
  9       0.027255346159
 10      -0.004979609285
 11      -0.019549601135
 12      -0.001825731254
 13      -0.010216603253
 14       0.002188063946
 15      -0.131744020357
 16      -0.271916789230
 17      -0.064442687728
 18       0.114352807952
 19      -0.064437720514
 20      -0.047075490215
 21      -0.032567656630
 22       0.017804797064
 23       0.013017798660
 24       0.005483529047
 25       0.009442395763
 26      -0.006192438887
 27      -0.010007084465
 28       0.016069960133
 29      -0.129968590301
 30      -0.266529522725
 31      -0.061217390253
 32      -0.047853501842
 33      -0.067094004271
 34       0.111348878849
 35       0.013771028305
 36       0.019188677423
 37      -0.029959715530
 38      -0.011145771621
 39       0.012010175063
 40       0.014356213544
 41       0.003536121359
 42      -0.006163963545
 43      -0.129219187884
 44      -0.265164108151
 45      -0.060230590595
 46       0.034400759714
 47       0.129968133123
 48       0.029991607779
 49      -0.009904630728
 50      -0.035498437912
 51      -0.007385696984
 52       0.007934281815
 53      -0.002480244052
 54      -0.008177081741
 55       0.017130812801
 56      -0.009604358049
 Sym=     1a
 Ene= -1.42319038301765E+00
 Spin= Alpha
 Occup= 1.000000
  1       0.104120464307
  2       0.225639635997
  3       0.206000605167
  4       0.118604903927
  5      -0.107880967477
  6      -0.104839827541
  7      -0.065399290909
  8       0.022668434119
  9      -0.017717016802
 10      -0.021249392394
 11      -0.000788968354
 12      -0.008719499549
 13       0.015282326692
 14      -0.016818122942
 15       0.156452173927
 16       0.340271853863
 17       0.300813294910
 18      -0.092415507581
 19      -0.028993411991
 20      -0.127052650970
 21       0.085801470299
 22      -0.031611450284
 23      -0.000967699166
 24      -0.008982885952
 25       0.016000619623
 26      -0.010066098892
 27       0.016355670529
 28      -0.004473929438
 29      -0.119078684800
 30      -0.257988785251
 31      -0.231023685128
 32      -0.002172297700
 33      -0.164719876006
 34      -0.077606792918
 35       0.021829849425
 36       0.063389607810
 37      -0.035306059798
 38       0.018248230591
 39      -0.003466419472
 40       0.012025460558
 41       0.016640307289
 42      -0.010396919811
 43      -0.143096693835
 44      -0.310089850547
 45      -0.275343315001
 46       0.073267336535
 47       0.038156274746
 48      -0.145351531899
 49      -0.033059034916
 50      -0.078260437543
 51       0.012612476932
 52       0.005713426698
 53       0.004002064871
 54       0.021466068088
 55       0.004295243927
 56      -0.014001788240
 Sym=     1a
 Ene= -1.41524960643559E+00
 Spin= Alpha
 Occup= 1.000000
  1      -0.200712160324
  2      -0.438969166754
  3      -0.375642634791
  4       0.014425721010
  5      -0.101276212588
  6      -0.049696374992
  7       0.066366569957
  8       0.022071664142
  9       0.079351031082
 10      -0.006574237948
 11      -0.003185198315
 12      -0.013946238882
 13       0.004404270406
 14      -0.008825272516
 15       0.161814146577
 16       0.354465767729
 17       0.297886310657
 18       0.025055748735
 19      -0.022876527090
 20       0.153834859538
 21       0.057125488751
 22      -0.030875561868
 23      -0.059242151497
 24       0.015542800534
 25      -0.018429464433
 26       0.008262649455
 27      -0.002721301992
 28       0.004381507718
 29       0.074381154412
 30       0.160772055863
 31       0.147233021939
 32       0.176704006921
 33      -0.058676199876
 34       0.028614253015
 35      -0.050124524175
 36      -0.007666785788
 37       0.026565815118
 38      -0.008501182878
 39      -0.024826676150
 40       0.011380480853
 41       0.013777246557
 42       0.008200556754
 43      -0.034740735923
 44      -0.074906718242
 45      -0.068594592573
 46       0.157995170833
 47      -0.059624506220
 48       0.101867494107
 49      -0.037168710936
 50      -0.005702320333
 51      -0.024636629846
 52      -0.006859757589
 53      -0.013587621669
 54      -0.012855378213
 55      -0.015972342626
 56      -0.022667252049
 Sym=     1a
 Ene= -1.39870585660585E+00
 Spin= Alpha
 Occup= 1.000000
  1      -0.056277346237
  2      -0.124251607588
  3      -0.098895258445
  4       0.086542133370
  5       0.152423226500
  6      -0.099793376753
  7      -0.001851635422
  8      -0.032969494636
  9       0.038244412550
 10      -0.020815831417
 11       0.000148857891
 12       0.018600078690
 13       0.008965423733
 14       0.017945324449
 15       0.062187936373
 16       0.137072023810
 17       0.111336987875
 18       0.075889202779
 19       0.178740180793
 20      -0.040915419776
 21       0.005748723572
 22      -0.051518869756
 23      -0.000440690409
 24      -0.005195997078
 25       0.011118064308
 26       0.009183936827
 27      -0.024733786774
 28      -0.017465067162
 29      -0.183929609743
 30      -0.400838791129
 31      -0.348109154356
 32       0.060269636217
 33       0.060672819711
 34       0.088615627451
 35       0.018115296175
 36       0.031289682375
 37      -0.090361174746
 38      -0.019484771664
 39      -0.003259822939
 40      -0.002703851585
 41      -0.001269399222
 42       0.010239963330
 43       0.179224922829
 44       0.390611738301
 45       0.337902716981
 46       0.078388009157
 47      -0.018836664986
 48      -0.098704091633
 49       0.004857004126
 50       0.086245408819
 51       0.039030005256
 52       0.006180934020
 53       0.001830568055
 54       0.017077313181
 55      -0.005956663236
 56      -0.013115483247
 Sym=     1a
 Ene= -1.02729568260206E+00
 Spin= Alpha
 Occup= 1.000000
  1       0.071317204836
  2       0.150410505117
  3       0.174441081708
  4      -0.203259626268
  5       0.000299059239
  6      -0.233782310110
  7       0.080314479703
  8      -0.000345701468
  9       0.099100262765
 10      -0.010386111577
 11      -0.036581067968
 12       0.002718977332
 13      -0.017621704601
 14      -0.003290332298
 15       0.071646308536
 16       0.151281579774
 17       0.175463823253
 18       0.235621200096
 19      -0.159057167744
 20      -0.120251924943
 21      -0.093447612743
 22       0.068082674189
 23       0.051993621532
 24       0.016343174223
 25       0.022413355100
 26      -0.011353441486
 27      -0.013879067274
 28       0.026088250220
 29       0.065342698097
 30       0.136439251957
 31       0.160300742350
 32      -0.086893945020
 33      -0.106012519187
 34       0.261192421995
 35       0.033812694650
 36       0.038943865134
 37      -0.111453863268
 38      -0.021343006577
 39       0.018202915176
 40       0.027744152782
 41       0.000392084257
 42      -0.010369051354
 43       0.065133010192
 44       0.136131127154
 45       0.159693900030
 46       0.049340893824
 47       0.269139565754
 48       0.105827611903
 49      -0.017023487278
 50      -0.110412430879
 51      -0.049456021136
 52       0.018964252067
 53      -0.004380361061
 54      -0.018006104532
 55       0.027647717466
 56      -0.013633583360
 Sym=     1a
 Ene= -9.36702268651209E-01
 Spin= Alpha
 Occup= 1.000000
  1      -0.048452792457
  2      -0.118072799923
  3      -0.072121825233
  4       0.292181467005
  5      -0.283826602309
  6      -0.123708801840
  7      -0.165682905425
  8       0.155989415602
  9       0.059920888822
 10      -0.018319673211
 11      -0.001624512677
 12      -0.011393268287
 13       0.027647016320
 14      -0.026447902186
 15      -0.043776049889
 16      -0.106228502364
 17      -0.067079573954
 18      -0.246843093660
 19       0.051126417908
 20      -0.345765144122
 21       0.139415820033
 22      -0.034011330229
 23       0.185798696441
 24      -0.018985150611
 25       0.031146465068
 26      -0.004553437712
 27       0.022831534097
 28      -0.010635787015
 29       0.034408642438
 30       0.084879492501
 31       0.047944702949
 32      -0.079833128691
 33       0.128326285136
 34       0.135472302204
 35       0.046135930065
 36      -0.077784519384
 37      -0.089028578603
 38      -0.000876809313
 39       0.006649484183
 40       0.006552390236
 41      -0.023146242693
 42       0.013067001656
 43       0.042615587845
 44       0.104909855693
 45       0.060783330321
 46       0.037400085303
 47       0.041734546078
 48       0.211937802476
 49      -0.021188664081
 50      -0.030274202832
 51      -0.131398966481
 52       0.011648901300
 53      -0.019363304597
 54      -0.013317656784
 55      -0.009259493816
 56       0.005089707799
 Sym=     1a
 Ene= -9.24926498325515E-01
 Spin= Alpha
 Occup= 1.000000
  1       0.095160783827
  2       0.231680474138
  3       0.143826312287
  4      -0.114280145242
  5      -0.172438899419
  6      -0.249431791243
  7       0.080471246164
  8       0.082580790170
  9       0.149258926135
 10      -0.013484234169
 11      -0.006785984748
 12      -0.015297593390
 13      -0.004468690313
 14      -0.015298961164
 15      -0.105300981512
 16      -0.256834268240
 17      -0.157952753369
 18      -0.195611202148
 19       0.059645257918
 20       0.276228408276
 21       0.126899499284
 22      -0.050391816641
 23      -0.151059819933
 24       0.005852790440
 25      -0.020360988524
 26       0.012223578792
 27       0.007883814964
 28       0.003379897253
 29      -0.042623590772
 30      -0.104077382312
 31      -0.062889647984
 32       0.247114309584
 33      -0.104311805629
 34      -0.088804637102
 35      -0.124522567548
 36       0.044636271384
 37       0.058907826269
 38       0.002022117155
 39      -0.019632166142
 40       0.012507842588
 41       0.019744731917
 42       0.014311170329
 43       0.054319734943
 44       0.131966777617
 45       0.081767250602
 46       0.227857209696
 47       0.056896469228
 48       0.133483027864
 49      -0.113030109153
 50      -0.047896631838
 51      -0.070540370775
 52       0.000794192310
 53      -0.001362686800
 54      -0.012946994587
 55      -0.013282822228
 56      -0.025673792567
 Sym=     1a
 Ene= -9.23511411361367E-01
 Spin= Alpha
 Occup= 1.000000
  1      -0.042918764921
  2      -0.104686273483
  3      -0.064393828271
  4      -0.050921024373
  5      -0.166672291310
  6       0.231653862437
  7       0.012701854804
  8       0.079276213422
  9      -0.126217442613
 10       0.019205087487
 11       0.008039099061
 12      -0.011906207588
 13      -0.013947631738
 14      -0.017433499113
 15       0.045652848295
 16       0.111611205156
 17       0.067918810097
 18      -0.000062761629
 19      -0.278311195585
 20      -0.006335279855
 21      -0.016586887316
 22       0.143471314349
 23       0.009384638516
 24      -0.000436793456
 25      -0.005614128519
 26      -0.004387442542
 27       0.020179363242
 28       0.023260414014
 29      -0.101652989914
 30      -0.246941458755
 31      -0.158563617663
 32      -0.037931840031
 33       0.019801373486
 34      -0.335021792804
 35       0.005572033259
 36      -0.023937299063
 37       0.196141718497
 38       0.022401959559
 39       0.001774845185
 40      -0.004737420193
 41      -0.003308707293
 42      -0.009219661129
 43       0.100437525210
 44       0.244087525512
 45       0.156835750705
 46      -0.077425506047
 47       0.259431400225
 48       0.171876846928
 49       0.028688858228
 50      -0.161243821551
 51      -0.094040507517
 52      -0.003039996266
 53      -0.000523159474
 54      -0.013409200530
 55       0.015843344726
 56       0.010411793110
 Sym=     1a
 Ene= -9.14762374506197E-01
 Spin= Alpha
 Occup= 1.000000
  1      -0.071543649260
  2      -0.176381380602
  3      -0.099163686366
  4       0.162021963166
  5       0.050183217768
  6       0.089757233094
  7      -0.094655131124
  8      -0.036253070773
  9      -0.075049368492
 10      -0.013099093438
 11       0.010618201935
 12      -0.008372038962
 13      -0.000984585082
 14       0.011744848032
 15      -0.057614622079
 16      -0.142296544518
 17      -0.079553829514
 18      -0.149383749338
 19       0.017634230609
 20       0.029145405419
 21       0.088932388224
 22      -0.019413225446
 23      -0.038328582506
 24      -0.013783538196
 25      -0.008316911666
 26      -0.015458873674
 27       0.002121582509
 28       0.001335627069
 29       0.079695754158
 30       0.191349745532
 31       0.123053691653
 32      -0.066491674008
 33      -0.399051454156
 34       0.001639517641
 35       0.038150160211
 36       0.222881288696
 37      -0.020405571631
 38       0.020633408776
 39      -0.003181572026
 40       0.020938078477
 41       0.017605811208
 42      -0.020990757690
 43       0.070404315984
 44       0.168471049685
 45       0.110633744987
 46       0.062001536348
 47       0.261394577012
 48      -0.313574728308
 49      -0.033924430241
 50      -0.156738864655
 51       0.161487564480
 52       0.017490291715
 53       0.013855471352
 54       0.030645308558
 55       0.014293281899
 56      -0.010823487081
 Sym=     1a
 Ene= -8.95585948515377E-01
 Spin= Alpha
 Occup= 1.000000
  1      -0.003299432898
  2      -0.007316197192
  3      -0.007182304559
  4       0.177528890668
  5       0.242956014862
  6      -0.165778238432
  7      -0.103578823871
  8      -0.140666103708
  9       0.098004390093
 10      -0.024757257418
 11       0.008908803447
 12       0.027147268695
 13      -0.000549534070
 14       0.003271431697
 15      -0.000016558464
 16       0.001250435353
 17      -0.004980223779
 18      -0.164988120697
 19      -0.311603029825
 20       0.037852620693
 21       0.093829169771
 22       0.182496274183
 23      -0.019730384980
 24       0.016947990695
 25      -0.007804794985
 26      -0.019432868005
 27       0.027543263676
 28       0.003541254974
 29      -0.009135539938
 30      -0.021348047755
 31      -0.014778579246
 32       0.316850463396
 33       0.012529842723
 34       0.102971897945
 35      -0.185860545175
 36      -0.006530186243
 37      -0.059112469167
 38      -0.018579901589
 39      -0.032014282362
 40       0.006804474900
 41      -0.003239177859
 42       0.000801479014
 43      -0.006003829700
 44      -0.013170767102
 45      -0.012569449458
 46      -0.338364156062
 47       0.054102638911
 48       0.030491291404
 49       0.197001697608
 50      -0.033119017324
 51      -0.016887502593
 52       0.010064346154
 53       0.020486948256
 54      -0.011295456333
 55       0.003888409338
 56       0.028764305784
 Sym=     1a
 Ene= -1.85340875901054E-01
 Spin= Alpha
 Occup= 0.000000
  1      -0.006676322736
  2      -0.017056128887
  3      -0.048973680642
  4      -0.246272167697
  5       0.325413297113
  6       0.194096849835
  7       0.291765732368
  8      -0.375598372226
  9      -0.217002674418
 10      -0.001312978092
 11      -0.004139403753
 12       0.001418830796
 13       0.006737510943
 14      -0.008036625977
 15       0.006025442885
 16       0.015907931644
 17       0.045054649268
 18      -0.187872016394
 19       0.049799499276
 20      -0.405180829159
 21       0.224877994781
 22      -0.062036430136
 23       0.464217970751
 24      -0.000234037476
 25      -0.009989426415
 26      -0.002623401073
 27      -0.005215267966
 28       0.001923180739
 29       0.002580395559
 30       0.005502527268
 31       0.013755357420
 32       0.195653160677
 33      -0.240870199973
 34      -0.064091892750
 35      -0.218191749580
 36       0.273258839943
 37       0.076300649993
 38       0.000250961326
 39       0.001668192207
 40       0.000988090921
 41      -0.000624518513
 42       0.006477764058
 43      -0.002043566094
 44      -0.003882286658
 45      -0.011559064162
 46       0.169426381080
 47      -0.101712728360
 48       0.250000444288
 49      -0.187934875312
 50       0.113160353445
 51      -0.284186673414
 52       0.000415882995
 53       0.006361198193
 54      -0.000071062665
 55      -0.000523626600
 56      -0.003030811838
 Sym=     1a
 Ene= -1.62842278922330E-01
 Spin= Alpha
 Occup= 0.000000
  1      -0.005812997046
  2      -0.015412159185
  3      -0.046098805911
  4      -0.226299229712
  5      -0.085190100434
  6       0.179748111577
  7       0.276583436612
  8       0.096781297767
  9      -0.205445401984
 10      -0.004184846853
 11       0.000332264440
 12       0.004327239425
 13      -0.000025487319
 14      -0.005960589527
 15       0.004067797834
 16       0.011123354125
 17       0.036127360552
 18      -0.216323871142
 19      -0.256983809487
 20      -0.075874530266
 21       0.264807406361
 22       0.297265766719
 23       0.092484948862
 24      -0.004988420060
 25      -0.003763999161
 26       0.004807830591
 27      -0.004752556676
 28       0.003732782998
 29       0.000753668819
 30       0.004698965061
 31       0.016162606339
 32       0.141104041083
 33       0.338609006673
 34       0.228157915748
 35      -0.162758369286
 36      -0.406659838619
 37      -0.263258351159
 38       0.002158586626
 39       0.000782172942
 40      -0.000944057335
 41       0.009557988874
 42      -0.002747814027
 43       0.000973542155
 44      -0.000386868124
 45      -0.006496886182
 46       0.252326307244
 47       0.045605468354
 48      -0.367985201212
 49      -0.293989325700
 50      -0.061140820710
 51       0.438598060636
 52       0.004739154215
 53      -0.002031766460
 54      -0.007111852427
 55      -0.005941956433
 56       0.003283973667
 Sym=     1a
 Ene= -1.48891885392550E-01
 Spin= Alpha
 Occup= 0.000000
  1      -0.004318580981
  2      -0.012176395702
  3      -0.034426556952
  4      -0.165261358257
  5      -0.333381266992
  6       0.130867401832
  7       0.202939876145
  8       0.402032003809
  9      -0.148464400913
 10      -0.005124434282
 11       0.004015910924
 12       0.007676739680
 13      -0.006482657969
 14      -0.000630183203
 15      -0.001461012151
 16      -0.004601713475
 17      -0.014713271022
 18       0.127252179757
 19       0.304446057183
 20      -0.152164327357
 21      -0.154229481629
 22      -0.364656281925
 23       0.190969614655
 24       0.007775495116
 25      -0.005122085778
 26      -0.006863293544
 27       0.002033529297
 28      -0.001481730982
 29       0.003901874716
 30       0.009984428836
 31       0.033661256845
 32       0.378274523839
 33      -0.082158634949
 34       0.083057293680
 35      -0.459969598060
 36       0.099001551203
 37      -0.091222763605
 38       0.002268326212
 39       0.007967821813
 40      -0.001879537564
 41       0.002088594351
 42       0.006890422555
 43       0.002150642683
 44       0.005069210160
 45       0.020942057529
 46      -0.346248137286
 47       0.103118206604
 48      -0.118913885611
 49       0.422232447587
 50      -0.122237972271
 51       0.151946941639
 52      -0.004619899575
 53      -0.010315927286
 54       0.000363738919
 55       0.000478608181
 56      -0.001722736156
 Sym=     1a
 Ene= -5.55109474451512E-02
 Spin= Alpha
 Occup= 0.000000
  1       0.011481759656
  2       0.030908500233
  3       0.075389268017
  4       0.093631097537
  5      -0.080394363558
  6      -0.045669387938
  7      -0.274831413400
  8       0.277566482440
  9       0.190112574470
 10       0.015123072236
 11       0.008473795525
 12       0.003379562319
 13      -0.020331035628
 14       0.025104635606
 15      -0.151628918228
 16      -0.389205380443
 17      -1.264198567494
 18       0.358009643792
 19      -0.274741362213
 20      -0.204655372939
 21      -0.706748048188
 22       0.586897317230
 23       0.436034975734
 24       0.000876976487
 25       0.001257482436
 26       0.000563681766
 27      -0.019085485228
 28       0.013662242066
 29       0.046822234525
 30       0.119071523138
 31       0.390749172098
 32       0.128899278460
 33      -0.047774490835
 34      -0.155043512058
 35      -0.335915247212
 36       0.222006177532
 37       0.360459038475
 38      -0.002929836690
 39       0.016242406335
 40      -0.012105784565
 41      -0.022692467510
 42       0.017944715841
 43       0.095340722009
 44       0.242309881914
 45       0.802533979876
 46       0.060753400365
 47      -0.309076771084
 48      -0.123896701191
 49      -0.223614860920
 50       0.645314294934
 51       0.311618361832
 52       0.004087609095
 53       0.010523285992
 54      -0.012284674306
 55      -0.009194470835
 56       0.026794589167
 Sym=     1a
 Ene= -5.17310476368982E-02
 Spin= Alpha
 Occup= 0.000000
  1      -0.159820901286
  2      -0.410549062040
  3      -1.344025541067
  4      -0.330653756296
  5       0.000867110586
  6      -0.394155807606
  7       0.682237114592
  8      -0.002167747934
  9       0.811445920121
 10       0.000060105921
 11      -0.015517706324
 12      -0.004861498868
 13      -0.010522947955
 14       0.005232384756
 15       0.040110697625
 16       0.104284319721
 17       0.318457865456
 18      -0.157180011872
 19       0.040078556159
 20      -0.054070618930
 21       0.391582457163
 22      -0.061472847577
 23       0.269213450445
 24       0.004401764233
 25      -0.029127645070
 26       0.006188593623
 27      -0.017688347497
 28       0.003644863256
 29       0.066241402639