[Molden Format]
[Atoms] AU
   N     1    7      0.98265751     0.99683046     0.96848457
   N     2    7     -0.98265751    -0.98738183     0.98738183
   N     3    7     -0.98265751     0.97793320    -0.97793320
   N     4    7      0.98265751    -0.98738183    -0.97793320
[GTO]
    1  0
  s      5  0
  1712.84158530    -0.00539341
   257.64812677    -0.04022158
    58.45824585    -0.17931145
    16.19836791    -0.46376318
     5.00526008    -0.44171423
  s      1  0
     0.58731857     1.00000000
  s      1  0
     0.18764592     1.00000000
  p      3  0
    13.57147023    -0.04007240
     2.92573729    -0.21807045
     0.79927751    -0.51294466
  p      1  0
     0.21954348     1.00000000
  d      1  0
     1.00000000     1.00000000

    2  0
  s      5  0
  1712.84158530    -0.00539341
   257.64812677    -0.04022158
    58.45824585    -0.17931145
    16.19836791    -0.46376318
     5.00526008    -0.44171423
  s      1  0
     0.58731857     1.00000000
  s      1  0
     0.18764592     1.00000000
  p      3  0
    13.57147023    -0.04007240
     2.92573729    -0.21807045
     0.79927751    -0.51294466
  p      1  0
     0.21954348     1.00000000
  d      1  0
     1.00000000     1.00000000

    3  0
  s      5  0
  1712.84158530    -0.00539341
   257.64812677    -0.04022158
    58.45824585    -0.17931145
    16.19836791    -0.46376318
     5.00526008    -0.44171423
  s      1  0
     0.58731857     1.00000000
  s      1  0
     0.18764592     1.00000000
  p      3  0
    13.57147023    -0.04007240
     2.92573729    -0.21807045
     0.79927751    -0.51294466
  p      1  0
     0.21954348     1.00000000
  d      1  0
     1.00000000     1.00000000

    4  0
  s      5  0
  1712.84158530    -0.00539341
   257.64812677    -0.04022158
    58.45824585    -0.17931145
    16.19836791    -0.46376318
     5.00526008    -0.44171423
  s      1  0
     0.58731857     1.00000000
  s      1  0
     0.18764592     1.00000000
  p      3  0
    13.57147023    -0.04007240
     2.92573729    -0.21807045
     0.79927751    -0.51294466
  p      1  0
     0.21954348     1.00000000
  d      1  0
     1.00000000     1.00000000

[5D]
[9G]
[MO]
Sym=        a    
Ene=    -15.75273
Spin=       Alpha
Occup=    2.00000
     1    0.501620975058
     2   -0.017075475390
     3    0.004741344124
     4   -0.001181797907
     5   -0.001194831624
     6   -0.001169657908
     7   -0.001372704496
     8   -0.001374659223
     9   -0.001389472367
    10   -0.000017588855
    11    0.000418640088
    12    0.000423454119
    13   -0.000008500742
    14    0.000433034991
    15    0.506906600783
    16   -0.017211593949
    17    0.004735893331
    18    0.001186639435
    19    0.001192252027
    20   -0.001197908434
    21    0.001339866913
    22    0.001339588382
    23   -0.001388251402
    24   -0.000005068079
    25   -0.000427336292
    26   -0.000418309845
    27   -0.000000706379
    28    0.000421545227
    29    0.482850437947
    30   -0.016497948471
    31    0.004417745484
    32    0.001146365075
    33   -0.001138067219
    34    0.001139680450
    35    0.001351010724
    36   -0.001332612148
    37    0.001332626275
    38    0.000003256700
    39    0.000443118042
    40   -0.000437230087
    41    0.000001232256
    42   -0.000422876092
    43    0.490881014197
    44   -0.016723730451
    45    0.004475734607
    46   -0.001158743800
    47    0.001163816500
    48    0.001151553494
    49   -0.001337297318
    50    0.001331347998
    51    0.001313231529
    52    0.000002793819
    53   -0.000440368236
    54    0.000433063115
    55   -0.000001842304
    56   -0.000417003911
Sym=        a    
Ene=    -15.75207
Spin=       Alpha
Occup=    2.00000
     1   -0.589473086112
     2    0.019374495288
     3   -0.014826407402
     4    0.001342875449
     5    0.001359081863
     6    0.001219775395
     7    0.003541420992
     8    0.003726255698
     9    0.001545617643
    10   -0.000368938405
    11    0.000033143898
    12    0.000064968105
    13   -0.000023482954
    14    0.000606264939
    15    0.781917716478
    16   -0.025649601580
    17    0.019748213827
    18    0.001737469504
    19    0.001751655508
    20   -0.001704239783
    21    0.004192066543
    22    0.004364240953
    23   -0.003182807244
    24    0.000193484079
    25    0.000215503336
    26    0.000255612933
    27    0.000024932704
    28   -0.000522654831
    29   -0.133765545961
    30    0.004409706870
    31   -0.003326435499
    32   -0.000179311457
    33    0.000396251791
    34   -0.000310551541
    35    0.001065359062
    36    0.002152805267
    37   -0.000928004234
    38    0.000075866488
    39   -0.000372423776
    40   -0.000544147797
    41   -0.000525060030
    42    0.000018920992
    43   -0.073493194075
    44    0.002412062604
    45   -0.001743090847
    46    0.000258072192
    47   -0.000046629292
    48   -0.000188419717
    49    0.001765659611
    50    0.001453311458
    51   -0.000713346464
    52    0.000106806421
    53   -0.000528681739
    54   -0.000371925212
    55    0.000521477089
    56    0.000073323759
Sym=        a    
Ene=    -15.75205
Spin=       Alpha
Occup=    2.00000
     1   -0.494233848116
     2    0.016219832141
     3   -0.012552458804
     4    0.001008612893
     5    0.001135964054
     6    0.001169074887
     7    0.000998527674
     8    0.002900455302
     9    0.003522074605
    10    0.000301112653
    11    0.000117980012
    12    0.000636728934
    13   -0.000301856263
    14   -0.000091374596
    15   -0.296042394856
    16    0.009692194198
    17   -0.007487468296
    18   -0.000675732592
    19   -0.000552469556
    20    0.000753867924
    21   -0.001711792502
    22    0.000181418089
    23    0.002852266835
    24    0.000390604519
    25   -0.000591358011
    26   -0.000064981295
    27    0.000305184706
    28   -0.000253817427
    29    0.004468009139
    30   -0.000141833785
    31   -0.000018795552
    32   -0.000028075925
    33    0.000068300074
    34    0.000140339499
    35   -0.000694862516
    36    0.001188615315
    37    0.001840663404
    38   -0.000526025025
    39   -0.000336662512
    40    0.000191670957
    41   -0.000081068777
    42   -0.000533992420
    43    0.806366840128
    44   -0.026484292870
    45    0.020252683420
    46   -0.001763556864
    47    0.001799191030
    48    0.001835246763
    49   -0.003464175326
    50    0.003952158327
    51    0.004596350694
    52   -0.000171005619
    53    0.000359131420
    54   -0.000489917571
    55    0.000076837309
    56    0.000162629619
Sym=        a    
Ene=    -15.75203
Spin=       Alpha
Occup=    2.00000
     1   -0.372717677125
     2    0.012218218331
     3   -0.009509519165
     4    0.000911934230
     5    0.000722556776
     6    0.000885700882
     7    0.002876476753
     8    0.000185539732
     9    0.002539627091
    10    0.000199698723
    11    0.000668346877
    12   -0.000103851534
    13    0.000450062258
    14   -0.000021780215
    15   -0.162213923361
    16    0.005309148946
    17   -0.004209242629
    18   -0.000239846568
    19   -0.000418308383
    20    0.000429031608
    21    0.001027470419
    22   -0.001661952190
    23    0.001827343241
    24    0.000283357988
    25    0.000157756308
    26   -0.000595636078
    27   -0.000429887652
    28   -0.000203372265
    29    0.855110147899
    30   -0.028120702262
    31    0.021541923952
    32    0.001951788037
    33   -0.001882559996
    34    0.001926238751
    35    0.004540958525
    36   -0.004006554045
    37    0.004213300826
    38    0.000004051654
    39   -0.000442870658
    40    0.000276844122
    41   -0.000094830366
    42    0.000363239538
    43   -0.292736967552
    44    0.009611107100
    45   -0.007557064992
    46    0.000726390150
    47   -0.000694835705
    48   -0.000535546606
    49    0.002606852616
    50   -0.002117278104
    51    0.000243744523
    52   -0.000485594420
    53    0.000044368589
    54   -0.000183394041
    55    0.000082500285
    56   -0.000624467903
Sym=        a    
Ene=     -1.66781
Spin=       Alpha
Occup=    2.00000
     1    0.130043059538
     2    0.262056207189
     3    0.070310162689
     4    0.078555716568
     5    0.078620724715
     6    0.078461223890
     7   -0.021833495561
     8   -0.022034604376
     9   -0.021635802196
    10   -0.000183652723
    11    0.013337433265
    12    0.013386509088
    13   -0.000104447151
    14    0.013439865607
    15    0.129180230474
    16    0.260399818332
    17    0.069257751170
    18   -0.077406170597
    19   -0.077906451378
    20    0.078820402692
    21    0.021443276233
    22    0.021443290407
    23   -0.021655898184
    24    0.000114500648
    25   -0.013385528093
    26   -0.013423752457
    27   -0.000102250253
    28    0.013219811391
    29    0.130905774714
    30    0.263708974446
    31    0.071429487624
    32   -0.079690976015
    33    0.078243595688
    34   -0.079172971724
    35    0.022253689691
    36   -0.022024939083
    37    0.022248098972
    38   -0.000033505049
    39    0.013558875890
    40   -0.013350324897
    41    0.000153355785
    42   -0.013387927715
    43    0.130031977696
    44    0.262033652899
    45    0.070330946335
    46    0.078540558711
    47   -0.079041556927
    48   -0.078023548523
    49   -0.021840617951
    50    0.021845465067
    51    0.021839932700
    52   -0.000180114541
    53   -0.013350343786
    54    0.013386346230
    55   -0.000103815615
    56   -0.013426199981
Sym=        a    
Ene=     -1.04591
Spin=       Alpha
Occup=    2.00000
     1    0.159543372153
     2    0.338199389916
     3    0.307847964534
     4    0.029925579460
     5   -0.102398351238
     6    0.094465488898
     7   -0.042949900686
     8   -0.008858352351
     9   -0.059966802287
    10    0.012958836542
    11    0.014161697458
    12    0.000035409025
    13    0.011436080253
    14   -0.007102155769
    15   -0.171029022026
    16   -0.362431356848
    17   -0.329760790123
    18    0.034343084842
    19   -0.095789202404
    20   -0.082497640377
    21   -0.046534944572
    22   -0.012898768505
    23    0.059909640766
    24   -0.011380078146
    25    0.013532032260
    26   -0.000551176267
    27   -0.011250440456
    28    0.005738387553
    29    0.093533224023
    30    0.198287495986
    31    0.180948299579
    32   -0.107924005033
    33   -0.139421871088
    34   -0.041943430329
    35    0.049080661031
    36    0.015627940221
    37    0.031688544723
    38    0.005592213166
    39    0.016640119830
    40    0.010141345232
    41    0.021341527535
    42    0.003135890921
    43   -0.083400908978
    44   -0.176695719568
    45   -0.161631276093
    46   -0.100691988618
    47   -0.142962051772
    48    0.053131349112
    49    0.045006045466
    50    0.018489862136
    51   -0.032499935571
    52   -0.007458628109
    53    0.017011403048
    54    0.009228179499
    55   -0.021216265754
    56   -0.004078225060
Sym=        a    
Ene=     -1.04247
Spin=       Alpha
Occup=    2.00000
     1    0.043941935738
     2    0.093154228159
     3    0.085551000619
     4   -0.156330362793
     5    0.080796650559
     6    0.080153750451
     7    0.031303565610
     8   -0.030879982280
     9   -0.031157714277
    10    0.011710266341
    11   -0.007815547023
    12    0.017620188847
    13   -0.020554974762
    14   -0.008020269561
    15   -0.121146070501
    16   -0.256828078045
    17   -0.234950193473
    18   -0.115325152449
    19    0.120427306797
    20   -0.007436617949
    21    0.003504404272
    22   -0.058413107373
    23    0.029117685726
    24   -0.000409004648
    25   -0.010913874318
    26    0.014591337588
    27    0.020344326153
    28   -0.001251665453
    29   -0.120553155856
    30   -0.255549188010
    31   -0.235525737394
    32   -0.115740611192
    33   -0.006472225222
    34    0.122150282044
    35    0.003219412155
    36    0.028621419750
    37   -0.059511667573
    38   -0.017663064213
    39   -0.001426818277
    40    0.014506439321
    41    0.010668654884
    42   -0.011069696249
    43    0.197758946770
    44    0.419227036386
    45    0.384934564586
    46   -0.074708424042
    47   -0.048812461763
    48   -0.046700165128
    49   -0.024592246894
    50    0.057313120741
    51    0.056322814763
    52    0.005826977311
    53    0.001774795192
    54    0.011474852318
    55   -0.010763805381
    56    0.001686198970
Sym=        a    
Ene=     -1.03908
Spin=       Alpha
Occup=    2.00000
     1    0.159064745644
     2    0.337222901075
     3    0.312275190209
     4    0.024808864491
     5    0.091891523464
     6   -0.105158240216
     7   -0.042737445030
     8   -0.060360375731
     9   -0.007784122143
    10   -0.016394157770
    11   -0.007489001587
    12   -0.000427610006
    13   -0.005882185063
    14    0.013732227438
    15    0.094603173816
    16    0.200543918559
    17    0.185231064788
    18   -0.106231362965
    19   -0.040492071461
    20   -0.137430584509
    21    0.049366051128
    22    0.032094994624
    23    0.015141661206
    24   -0.021186860707
    25    0.002511137050
    26    0.009704640266
    27    0.005567442664
    28    0.016462208455
    29   -0.170919628399
    30   -0.362469384920
    31   -0.335813368482
    32    0.032752931493
    33   -0.081613678751
    34   -0.099415258296
    35   -0.047635439612
    36    0.059778779524
    37   -0.012219190961
    38    0.015616418434
    39    0.006050240740
    40   -0.000769417321
    41    0.004163271795
    42    0.013436210218
    43   -0.081385576127
    44   -0.172633514881
    45   -0.159065879128
    46   -0.101085568583
    47    0.051663296509
    48   -0.146217901059
    49    0.044967248922
    50   -0.031936657599
    51    0.020760691246
    52    0.022095105983
    53   -0.004373503903
    54    0.009679239456
    55   -0.004244117978
    56    0.017031418364
Sym=        a    
Ene=     -0.69410
Spin=       Alpha
Occup=    2.00000
     1    0.064209718591
     2    0.128755284766
     3    0.184245851859
     4   -0.167068803665
     5   -0.169439568653
     6   -0.164707757503
     7    0.080981143458
     8    0.082462702801
     9    0.079514640107
    10    0.000469050005
    11   -0.020372825339
    12   -0.020774418330
    13    0.000274707239
    14   -0.021180195487
    15    0.064196876334
    16    0.128784840231
    17    0.184643125993
    18    0.165320508969
    19    0.166201504191
    20   -0.166144504984
    21   -0.080035360994
    22   -0.080272730317
    23    0.080102936640
    24   -0.000087345260
    25    0.020609389760
    26    0.020724291093
    27    0.000096166304
    28   -0.020732047018
    29    0.064207664281
    30    0.128690022511
    31    0.183767688811
    32    0.168841874647
    33   -0.167971254610
    34    0.167979847772
    35   -0.081970085024
    36    0.081870427566
    37   -0.081739524150
    38    0.000033213723
    39   -0.020834289739
    40    0.020834643043
    41   -0.000131965954
    42    0.020949400902
    43    0.064207873029
    44    0.128747848846
    45    0.184236195025
    46   -0.167045720116
    47    0.167945451838
    48    0.166202428873
    49    0.080971918076
    50   -0.081225893219
    51   -0.080757910727
    52    0.000163817785
    53    0.020663361242
    54   -0.020781534771
    55    0.000098083058
    56    0.020892973802
Sym=        a    
Ene=     -0.57809
Spin=       Alpha
Occup=    2.00000
     1   -0.072103117038
     2   -0.167306792359
     3   -0.125725695561
     4    0.041580162723
     5    0.031746312732
     6    0.295834680440
     7   -0.048408447459
     8   -0.043294301820
     9   -0.185619745508
    10    0.023970533936
    11    0.008171580500
    12    0.007409790362
    13    0.000381071934
    14   -0.004082072287
    15    0.118341572970
    16    0.274897414831
    17    0.206075932271
    18    0.165638956627
    19    0.169553845196
    20   -0.260841287463
    21   -0.131518531795
    22   -0.134618357178
    23    0.183442880586
    24   -0.008396984879
    25    0.007156051504
    26    0.007713122865
    27   -0.000057539522
    28   -0.003296755778
    29   -0.023756946075
    30   -0.055044490155
    31   -0.041603511514
    32   -0.245996141954
    33   -0.110643328393
    34    0.015890426058
    35    0.141632421720
    36    0.051194730817
    37   -0.000416690422
    38   -0.007848622983
    39    0.008017849743
    40    0.008323082634
    41    0.028292767377
    42   -0.003473003412
    43   -0.021964642472
    44   -0.050887289253
    45   -0.038790150595
    46   -0.105521587462
    47   -0.234719720236
    48    0.022413580777
    49    0.048883034242
    50    0.133687518512
    51   -0.004497368455
    52   -0.008068496471
    53    0.007705168717
    54    0.006955985782
    55   -0.027902963953
    56   -0.003595005513
Sym=        a    
Ene=     -0.57698
Spin=       Alpha
Occup=    2.00000
     1   -0.070518831217
     2   -0.163822211109
     3   -0.122159704766
     4    0.294426345648
     5    0.028697969482
     6    0.033273690590
     7   -0.184944161745
     8   -0.041388022215
     9   -0.043438143996
    10   -0.012514798627
    11    0.007892135641
    12   -0.004335137947
    13    0.020862400585
    14    0.007090374445
    15   -0.026094737852
    16   -0.060617267265
    17   -0.045531300438
    18    0.013066365253
    19   -0.236850422152
    20   -0.095588746821
    21    0.002572592454
    22    0.136368407189
    23    0.042053790358
    24   -0.019976129144
    25    0.006974710855
    26   -0.003864401789
    27   -0.020451438357
    28    0.006983455301
    29   -0.021892329943
    30   -0.050859254941
    31   -0.037569697682
    32    0.022576248536
    33   -0.113370387864
    34   -0.250193543644
    35   -0.004238632134
    36    0.053511381123
    37    0.144416975521
    38    0.028767996897
    39    0.008418593737
    40   -0.003669957549
    41    0.006698898762
    42    0.008727488120
    43    0.118496330050
    44    0.275309379682
    45    0.205156187321
    46   -0.256074358582
    47    0.181894656604
    48    0.160635066332
    49    0.181596099415
    50   -0.142518874671
    51   -0.129124708195
    52    0.004826467850
    53    0.006377761720
    54   -0.003480148300
    55   -0.006344539442
    56    0.008045573765
Sym=        a    
Ene=     -0.57580
Spin=       Alpha
Occup=    2.00000
     1   -0.070411795292
     2   -0.163803235631
     3   -0.120961870756
     4    0.025378348668
     5    0.292838783108
     6    0.032879112703
     7   -0.039764227031
     8   -0.184687405774
     9   -0.043591716660
    10   -0.011993928623
    11   -0.004325078163
    12    0.007496679616
    13   -0.021237780929
    14    0.006882997834
    15   -0.023706845348
    16   -0.055220261373
    17   -0.040597888782
    18   -0.240735602288
    19    0.018715754072
    20   -0.101614475419
    21    0.138863987508
    22   -0.000955591421
    23    0.046317315998
    24   -0.019928235859
    25   -0.004000189652
    26    0.007470703209
    27    0.020863723217
    28    0.007455278428
    29    0.118225687197
    30    0.274741091400
    31    0.203380280276
    32    0.174852724335
    33   -0.254485812128
    34    0.170175091234
    35   -0.138879626141
    36    0.181460948669
    37   -0.135424112517
    38    0.003973950582
    39   -0.003433368495
    40    0.006809193064
    41    0.006791274253
    42    0.007356353466
    43   -0.024620237913
    44   -0.057354370922
    45   -0.041787925242
    46   -0.106911881795
    47    0.014632812382
    48   -0.250241123559
    49    0.048965545610
    50    0.001541564878
    51    0.145509842667
    52    0.028286605534
    53   -0.003896529473
    54    0.008371263594
    55   -0.007086686751
    56    0.008073135781
Sym=        a    
Ene=     -0.54974
Spin=       Alpha
Occup=    2.00000
     1   -0.002080094388
     2   -0.005464353446
     3   -0.001287243567
     4   -0.185942012345
     5    0.258256575627
     6   -0.066013724333
     7    0.122171289653
     8   -0.172421778337
     9    0.042640401918
    10   -0.002423909439
    11   -0.025994456672
    12    0.019170327557
    13   -0.009076817850
    14    0.006965681378
    15    0.001232769427
    16    0.002726165884
    17    0.002021239065
    18    0.196685422151
    19   -0.263609659622
    20   -0.074892866797
    21   -0.130274029764
    22    0.173749160004
    23    0.049691725612
    24   -0.003043044682
    25    0.026507759167
    26   -0.019317774905
    27   -0.010131248714
    28    0.007108029813
    29   -0.001171816154
    30   -0.003224705564
    31   -0.000332788694
    32    0.186928390606
    33    0.256051152172
    34    0.062042678631
    35   -0.123385152998
    36   -0.170946991480
    37   -0.040582215474
    38   -0.001656303262
    39   -0.025866191054
    40   -0.019452515432
    41   -0.008662700536
    42   -0.007145606733
    43    0.002241965872
    44    0.005199165856
    45    0.003119809451
    46   -0.197593449235
    47   -0.259800923371
    48    0.076267804720
    49    0.131508663851
    50    0.171208445289
    51   -0.051198941825
    52   -0.002939386898
    53    0.026513935966
    54    0.019321120561
    55   -0.010070484571
    56   -0.006797644715
Sym=        a    
Ene=     -0.54443
Spin=       Alpha
Occup=    2.00000
     1    0.001754295277
     2    0.004712749345
     3    0.000708871957
     4   -0.194071449256
     5   -0.072820591969
     6    0.262529470797
     7    0.130939781492
     8    0.049811432449
     9   -0.174592750616
    10    0.009462811737
    11    0.007115411454
    12    0.019262686970
    13   -0.002499057993
    14   -0.026450225686
    15    0.001003634802
    16    0.002835198007
    17    0.000082215688
    18    0.193881206206
    19    0.076297061984
    20    0.264218590315
    21   -0.130208673907
    22   -0.051609360601
    23   -0.175696063799
    24    0.010157833452
    25   -0.006884924202
    26   -0.018977452798
    27   -0.002140035034
    28   -0.026572875264
    29   -0.001135067494
    30   -0.002489328725
    31   -0.001884084729
    32    0.184986592597
    33   -0.065359962413
    34   -0.257617979136
    35   -0.123849062408
    36    0.043667169497
    37    0.173212789077
    38    0.008413101255
    39    0.006955318769
    40   -0.019127856016
    41   -0.002530389837
    42    0.026040636150
    43   -0.001816118219
    44   -0.004207173836
    45   -0.002412242114
    46   -0.184744222329
    47    0.064069799921
    48   -0.260469233605
    49    0.123136876510
    50   -0.042290994992
    51    0.175094826235
    52    0.008470710815
    53   -0.007242143623
    54    0.019091533590
    55   -0.002521390966
    56    0.026026838433
Sym=        a    
Ene=      0.18400
Spin=       Alpha
Occup=    0.00000
     1    0.003962283002
     2    0.009408603146
     3    0.029963115592
     4    0.257664051183
     5    0.105494393292
     6   -0.343298201824
     7   -0.376706000125
     8   -0.157205510100
     9    0.490919154184
    10   -0.000399341168
    11    0.003230129349
    12    0.007585822688
    13    0.000080483495
    14   -0.009750328893
    15   -0.003308066541
    16   -0.007773565080
    17   -0.025875040712
    18    0.180548229482
    19    0.185190400506
    20    0.341976045786
    21   -0.265675764661
    22   -0.271412010314
    23   -0.490115492749
    24    0.000033022823
    25    0.005334768104
    26    0.005428536901
    27    0.000040279492
    28    0.010068434199
    29   -0.000710034281
    30   -0.001698839849
    31   -0.005191622223
    32   -0.168127468883
    33   -0.096554194181
    34    0.076905496345
    35    0.235588609341
    36    0.134312695352
    37   -0.111374468436
    38    0.000097324884
    39   -0.002073198813
    40   -0.003923868866
    41    0.000491035422
    42    0.001994249850
    43    0.000067050181
    44    0.000108918075
    45    0.001111857186
    46   -0.245691815898
    47   -0.174332096061
    48   -0.071913787527
    49    0.346898758267
    50    0.245910756832
    51    0.102524228295
    52    0.000211304056
    53   -0.004203262700
    54   -0.006216089828
    55   -0.000603436490
    56   -0.002026800680
Sym=        a    
Ene=      0.18604
Spin=       Alpha
Occup=    0.00000
     1   -0.000734197481
     2   -0.001740569504
     3   -0.005603826580
     4    0.006894540175
     5   -0.046097888801
     6    0.035514234665
     7   -0.007631072588
     8    0.066650086438
     9   -0.050977518475
    10    0.000231216866
    11   -0.001068615554
    12   -0.000340254581
    13   -0.000288507190
    14    0.001214626241
    15    0.000524149584
    16    0.001099765714
    17    0.005680066851
    18    0.262768016759
    19   -0.302266529510
    20   -0.035545530128
    21   -0.376190047107
    22    0.436095553869
    23    0.050882350888
    24   -0.000011521417
    25   -0.008340699526
    26    0.007134650264
    27   -0.000166860515
    28   -0.001091848611
    29    0.000532361931
    30    0.001120238279
    31    0.005815501302
    32   -0.265768563462
    33    0.046137498983
    34    0.307812502477
    35    0.385961250311
    36   -0.066941207343
    37   -0.443600726904
    38   -0.000487824249
    39    0.001196719756
    40   -0.007712754434
    41    0.000193039637
    42    0.008800399585
    43   -0.000322165618
    44   -0.000478893909
    45   -0.005891619544
    46   -0.010543314911
    47    0.301118933546
    48   -0.308872686579
    49    0.017718327366
    50   -0.434956921513
    51    0.444651329289
    52    0.000260186732
    53    0.008397996524
    54   -0.000432965988
    55    0.000304329597
    56   -0.008760139130
Sym=        a    
Ene=      0.18787
Spin=       Alpha
Occup=    0.00000
     1   -0.003893378932
     2   -0.009217450115
     3   -0.029957339415
     4    0.251498308428
     5   -0.348284306092
     6    0.077189986770
     7   -0.357329722799
     8    0.506495905207
     9   -0.106193296763
    10    0.000057104432
    11   -0.009690046422
    12    0.006761115992
    13    0.000362839508
    14    0.001912059381
    15    0.000841900154
    16    0.002056592892
    17    0.005733052055
    18   -0.177609723094
    19    0.086521957112
    20   -0.085430908812
    21    0.262660837573
    22   -0.124148701096
    23    0.127768053732
    24    0.000267554182
    25    0.002578319164
    26   -0.005761783051
    27    0.000164144898
    28   -0.003005800316
    29    0.003086064183
    30    0.007224103185
    31    0.024842920757
    32    0.165615049689
    33    0.348769733367
    34    0.160830990033
    35   -0.233302431068
    36   -0.505461854743
    37   -0.227427391783
    38   -0.000302967935
    39    0.009334966671
    40    0.004317361459
    41   -0.000635142442
    42    0.004383173222
    43   -0.000024033497
    44   -0.000021394785
    45   -0.000612809320
    46   -0.263088935213
    47   -0.091971361968
    48   -0.170861225704
    49    0.386541716623
    50    0.134181113979
    51    0.251548047208
    52   -0.000013126836
    53   -0.002579371577
    54   -0.008061547714
    55    0.000092144590
    56   -0.005476800187
Sym=        a    
Ene=      0.28257
Spin=       Alpha
Occup=    0.00000
     1   -0.114632807293
     2   -0.271704857825
     3   -1.108274957624
     4   -0.188431034588
     5   -0.230281022742
     6   -0.118725829948
     7    0.537594506975
     8    0.723583842468
     9    0.202228989488
    10   -0.008264873769
    11   -0.021723840825
    12   -0.011828069507
    13   -0.003306528553
    14    0.008066393190
    15    0.145707080253
    16    0.344244574440
    17    1.414648150481
    18   -0.222963173915
    19   -0.267833414845
    20    0.199947530250
    21    0.613154449187
    22    0.802789228337
    23   -0.468426371219
    24    0.005293737073
    25   -0.020454768124
    26   -0.010272722766
    27    0.003102997494
    28    0.000454905623
    29   -0.048923667127
    30   -0.116260354478
    31   -0.471644567535
    32   -0.013970312053
    33   -0.168642798166
    34    0.074297296855
    35    0.167072125847
    36    0.589571413189
    37   -0.203383484036
    38   -0.000007384835
    39   -0.024342522482
    40   -0.017171924753
    41   -0.012326205989
    42    0.003322402919
    43    0.017096522414
    44    0.040470112512
    45    0.165583977543
    46   -0.047335853477
    47   -0.130836979983
    48    0.003225594157
    49    0.236846241402
    50    0.508760043624
    51   -0.052572945232
    52    0.003723743199
    53   -0.025202768048
    54   -0.015975942677
    55    0.012201354739
    56    0.005476967751
Sym=        a    
Ene=      0.28593
Spin=       Alpha
Occup=    0.00000
     1   -0.034489277384
     2   -0.081399762126
     3   -0.340008249063
     4    0.044352554775
     5   -0.105429765576
     6   -0.101240195985
     7   -0.284151085831
     8    0.369030556354
     9    0.364140742429
    10    0.005941135858
    11   -0.014114950776
    12    0.021815183067
    13   -0.011001111536
    14   -0.015050314126
    15   -0.067493224359
    16   -0.158876107779
    17   -0.667411504395
    18    0.161604280494
    19    0.013002305820
    20   -0.145310705981
    21   -0.537077818006
    22    0.111482990707
    23    0.458147592247
    24    0.004494405337
    25   -0.017707093640
    26    0.018222674806
    27    0.010895119263
    28   -0.013797910332
    29   -0.063829886193
    30   -0.151138624657
    31   -0.626446072622
    32    0.156233210935
    33   -0.132803664297
    34    0.008924485641
    35   -0.525076977793
    36    0.428857453272
    37    0.128961495334
    38   -0.011656302801
    39   -0.013282326258
    40    0.018661933139
    41    0.001363683723
    42   -0.018228334213
    43    0.165827644037
    44    0.391482506619
    45    1.633838396789
    46    0.273454210327
    47   -0.251249338969
    48   -0.255503300427
    49   -0.777846604205
    50    0.683680596118