[Molden Format]
[Atoms] AU
   N     1    7      0.98265751     0.99683046     0.96848457
   N     2    7     -0.98265751    -0.98738183     0.98738183
   N     3    7     -0.98265751     0.97793320    -0.97793320
   N     4    7      0.98265751    -0.98738183    -0.97793320
[GTO]
    1  0
  s      5  0
  1712.84158530    -1.03375855
   257.64812677    -1.86207408
    58.45824585    -2.72904019
    16.19836791    -2.69567345
     5.00526008    -1.06409144
  s      1  0
     0.58731857     0.47815135
  s      1  0
     0.18764592     0.20319567
  p      3  0
    13.57147023    -2.18502435
     2.92573729    -1.74669990
     0.79927751    -0.81146505
  p      1  0
     0.21954348     0.21421051
  d      1  0
     1.00000000     1.64592278

    2  0
  s      5  0
  1712.84158530    -1.03375855
   257.64812677    -1.86207408
    58.45824585    -2.72904019
    16.19836791    -2.69567345
     5.00526008    -1.06409144
  s      1  0
     0.58731857     0.47815135
  s      1  0
     0.18764592     0.20319567
  p      3  0
    13.57147023    -2.18502435
     2.92573729    -1.74669990
     0.79927751    -0.81146505
  p      1  0
     0.21954348     0.21421051
  d      1  0
     1.00000000     1.64592278

    3  0
  s      5  0
  1712.84158530    -1.03375855
   257.64812677    -1.86207408
    58.45824585    -2.72904019
    16.19836791    -2.69567345
     5.00526008    -1.06409144
  s      1  0
     0.58731857     0.47815135
  s      1  0
     0.18764592     0.20319567
  p      3  0
    13.57147023    -2.18502435
     2.92573729    -1.74669990
     0.79927751    -0.81146505
  p      1  0
     0.21954348     0.21421051
  d      1  0
     1.00000000     1.64592278

    4  0
  s      5  0
  1712.84158530    -1.03375855
   257.64812677    -1.86207408
    58.45824585    -2.72904019
    16.19836791    -2.69567345
     5.00526008    -1.06409144
  s      1  0
     0.58731857     0.47815135
  s      1  0
     0.18764592     0.20319567
  p      3  0
    13.57147023    -2.18502435
     2.92573729    -1.74669990
     0.79927751    -0.81146505
  p      1  0
     0.21954348     0.21421051
  d      1  0
     1.00000000     1.64592278

[5D]
[9G]
[MO]
Sym=        a    
Ene=    -15.75273
Spin=       Alpha
Occup=    2.00000
     1    0.501620974180
     2   -0.017075475362
     3    0.004741344104
     4   -0.001181797906
     5   -0.001194831622
     6   -0.001169657906
     7   -0.001372704492
     8   -0.001374659219
     9   -0.001389472364
    10   -0.000017588855
    11    0.000418640088
    12    0.000423454119
    13   -0.000008500742
    14    0.000433034992
    15    0.506906601451
    16   -0.017211593970
    17    0.004735893347
    18    0.001186639437
    19    0.001192252028
    20   -0.001197908436
    21    0.001339866916
    22    0.001339588386
    23   -0.001388251404
    24   -0.000005068079
    25   -0.000427336292
    26   -0.000418309845
    27   -0.000000706379
    28    0.000421545226
    29    0.482850437975
    30   -0.016497948471
    31    0.004417745484
    32    0.001146365075
    33   -0.001138067219
    34    0.001139680450
    35    0.001351010725
    36   -0.001332612147
    37    0.001332626275
    38    0.000003256699
    39    0.000443118041
    40   -0.000437230088
    41    0.000001232256
    42   -0.000422876092
    43    0.490881014376
    44   -0.016723730457
    45    0.004475734611
    46   -0.001158743800
    47    0.001163816500
    48    0.001151553494
    49   -0.001337297317
    50    0.001331348001
    51    0.001313231530
    52    0.000002793819
    53   -0.000440368237
    54    0.000433063114
    55   -0.000001842304
    56   -0.000417003911
Sym=        a    
Ene=    -15.75207
Spin=       Alpha
Occup=    2.00000
     1   -0.589473072296
     2    0.019374494836
     3   -0.014826407045
     4    0.001342875420
     5    0.001359081833
     6    0.001219775362
     7    0.003541420946
     8    0.003726255634
     9    0.001545617544
    10   -0.000368938414
    11    0.000033143889
    12    0.000064968091
    13   -0.000023482952
    14    0.000606264941
    15    0.781917724010
    16   -0.025649601826
    17    0.019748214028
    18    0.001737469520
    19    0.001751655523
    20   -0.001704239802
    21    0.004192066572
    22    0.004364240962
    23   -0.003182807323
    24    0.000193484068
    25    0.000215503348
    26    0.000255612940
    27    0.000024932701
    28   -0.000522654823
    29   -0.133765553974
    30    0.004409707134
    31   -0.003326435689
    32   -0.000179311475
    33    0.000396251807
    34   -0.000310551562
    35    0.001065359037
    36    0.002152805276
    37   -0.000928004313
    38    0.000075866500
    39   -0.000372423765
    40   -0.000544147804
    41   -0.000525060028
    42    0.000018921001
    43   -0.073493210174
    44    0.002412063133
    45   -0.001743091241
    46    0.000258072227
    47   -0.000046629328
    48   -0.000188419755
    49    0.001765659667
    50    0.001453311387
    51   -0.000713346570
    52    0.000106806429
    53   -0.000528681747
    54   -0.000371925200
    55    0.000521477086
    56    0.000073323761
Sym=        a    
Ene=    -15.75205
Spin=       Alpha
Occup=    2.00000
     1   -0.494233857255
     2    0.016219832443
     3   -0.012552459032
     4    0.001008612913
     5    0.001135964077
     6    0.001169074904
     7    0.000998527722
     8    0.002900455384
     9    0.003522074612
    10    0.000301112642
    11    0.000117980004
    12    0.000636728936
    13   -0.000301856269
    14   -0.000091374582
    15   -0.296042375605
    16    0.009692193567
    17   -0.007487467804
    18   -0.000675732551
    19   -0.000552469512
    20    0.000753867882
    21   -0.001711792419
    22    0.000181418207
    23    0.002852266742
    24    0.000390604520
    25   -0.000591358008
    26   -0.000064981282
    27    0.000305184712
    28   -0.000253817436
    29    0.004467996071
    30   -0.000141833355
    31   -0.000018795876
    32   -0.000028075952
    33    0.000068300105
    34    0.000140339469
    35   -0.000694862544
    36    0.001188615411
    37    0.001840663334
    38   -0.000526025024
    39   -0.000336662515
    40    0.000191670942
    41   -0.000081068788
    42   -0.000533992424
    43    0.806366841666
    44   -0.026484292920
    45    0.020252683467
    46   -0.001763556866
    47    0.001799191036
    48    0.001835246765
    49   -0.003464175316
    50    0.003952158384
    51    0.004596350675
    52   -0.000171005611
    53    0.000359131407
    54   -0.000489917577
    55    0.000076837319
    56    0.000162629628
Sym=        a    
Ene=    -15.75203
Spin=       Alpha
Occup=    2.00000
     1   -0.372717688038
     2    0.012218218690
     3   -0.009509519441
     4    0.000911934254
     5    0.000722556802
     6    0.000885700906
     7    0.002876476796
     8    0.000185539798
     9    0.002539627146
    10    0.000199698723
    11    0.000668346879
    12   -0.000103851526
    13    0.000450062254
    14   -0.000021780211
    15   -0.162213920103
    16    0.005309148839
    17   -0.004209242545
    18   -0.000239846561
    19   -0.000418308375
    20    0.000429031602
    21    0.001027470435
    22   -0.001661952150
    23    0.001827343247
    24    0.000283357994
    25    0.000157756303
    26   -0.000595636077
    27   -0.000429887649
    28   -0.000203372273
    29    0.855110146698
    30   -0.028120702222
    31    0.021541923923
    32    0.001951788035
    33   -0.001882559992
    34    0.001926238749
    35    0.004540958526
    36   -0.004006554013
    37    0.004213300839
    38    0.000004051648
    39   -0.000442870665
    40    0.000276844120
    41   -0.000094830371
    42    0.000363239532
    43   -0.292736958973
    44    0.009611106819
    45   -0.007557064773
    46    0.000726390132
    47   -0.000694835685
    48   -0.000535546586
    49    0.002606852592
    50   -0.002117278046
    51    0.000243744570
    52   -0.000485594421
    53    0.000044368588
    54   -0.000183394050
    55    0.000082500291
    56   -0.000624467901
Sym=        a    
Ene=     -1.66781
Spin=       Alpha
Occup=    2.00000
     1    0.130043059538
     2    0.262056207189
     3    0.070310162688
     4    0.078555716568
     5    0.078620724715
     6    0.078461223890
     7   -0.021833495561
     8   -0.022034604376
     9   -0.021635802196
    10   -0.000183652723
    11    0.013337433265
    12    0.013386509088
    13   -0.000104447151
    14    0.013439865607
    15    0.129180230474
    16    0.260399818333
    17    0.069257751170
    18   -0.077406170597
    19   -0.077906451378
    20    0.078820402692
    21    0.021443276233
    22    0.021443290407
    23   -0.021655898184
    24    0.000114500648
    25   -0.013385528093
    26   -0.013423752457
    27   -0.000102250253
    28    0.013219811391
    29    0.130905774714
    30    0.263708974445
    31    0.071429487624
    32   -0.079690976015
    33    0.078243595688
    34   -0.079172971724
    35    0.022253689691
    36   -0.022024939083
    37    0.022248098972
    38   -0.000033505049
    39    0.013558875890
    40   -0.013350324897
    41    0.000153355785
    42   -0.013387927715
    43    0.130031977696
    44    0.262033652899
    45    0.070330946335
    46    0.078540558711
    47   -0.079041556927
    48   -0.078023548523
    49   -0.021840617952
    50    0.021845465067
    51    0.021839932701
    52   -0.000180114541
    53   -0.013350343786
    54    0.013386346230
    55   -0.000103815615
    56   -0.013426199981
Sym=        a    
Ene=     -1.04591
Spin=       Alpha
Occup=    2.00000
     1    0.159543372151
     2    0.338199389913
     3    0.307847964532
     4    0.029925579458
     5   -0.102398351238
     6    0.094465488900
     7   -0.042949900685
     8   -0.008858352351
     9   -0.059966802288
    10    0.012958836543
    11    0.014161697458
    12    0.000035409025
    13    0.011436080253
    14   -0.007102155770
    15   -0.171029022029
    16   -0.362431356854
    17   -0.329760790127
    18    0.034343084841
    19   -0.095789202402
    20   -0.082497640376
    21   -0.046534944572
    22   -0.012898768505
    23    0.059909640766
    24   -0.011380078146
    25    0.013532032260
    26   -0.000551176267
    27   -0.011250440456
    28    0.005738387553
    29    0.093533224023
    30    0.198287495987
    31    0.180948299578
    32   -0.107924005035
    33   -0.139421871087
    34   -0.041943430327
    35    0.049080661031
    36    0.015627940221
    37    0.031688544722
    38    0.005592213166
    39    0.016640119830
    40    0.010141345232
    41    0.021341527535
    42    0.003135890920
    43   -0.083400908974
    44   -0.176695719559
    45   -0.161631276085
    46   -0.100691988618
    47   -0.142962051774
    48    0.053131349113
    49    0.045006045465
    50    0.018489862138
    51   -0.032499935570
    52   -0.007458628109
    53    0.017011403048
    54    0.009228179499
    55   -0.021216265754
    56   -0.004078225060
Sym=        a    
Ene=     -1.04247
Spin=       Alpha
Occup=    2.00000
     1    0.043941935733
     2    0.093154228148
     3    0.085551000609
     4   -0.156330362794
     5    0.080796650558
     6    0.080153750451
     7    0.031303565612
     8   -0.030879982279
     9   -0.031157714276
    10    0.011710266341
    11   -0.007815547023
    12    0.017620188847
    13   -0.020554974762
    14   -0.008020269561
    15   -0.121146070500
    16   -0.256828078044
    17   -0.234950193471
    18   -0.115325152448
    19    0.120427306799
    20   -0.007436617946
    21    0.003504404272
    22   -0.058413107373
    23    0.029117685725
    24   -0.000409004648
    25   -0.010913874318
    26    0.014591337588
    27    0.020344326153
    28   -0.001251665453
    29   -0.120553155854
    30   -0.255549188006
    31   -0.235525737390
    32   -0.115740611191
    33   -0.006472225219
    34    0.122150282046
    35    0.003219412156
    36    0.028621419748
    37   -0.059511667573
    38   -0.017663064214
    39   -0.001426818277
    40    0.014506439320
    41    0.010668654883
    42   -0.011069696250
    43    0.197758946773
    44    0.419227036392
    45    0.384934564590
    46   -0.074708424039
    47   -0.048812461762
    48   -0.046700165126
    49   -0.024592246895
    50    0.057313120740
    51    0.056322814762
    52    0.005826977311
    53    0.001774795192
    54    0.011474852318
    55   -0.010763805381
    56    0.001686198970
Sym=        a    
Ene=     -1.03908
Spin=       Alpha
Occup=    2.00000
     1    0.159064745646
     2    0.337222901080
     3    0.312275190214
     4    0.024808864489
     5    0.091891523464
     6   -0.105158240214
     7   -0.042737445030
     8   -0.060360375732
     9   -0.007784122144
    10   -0.016394157770
    11   -0.007489001587
    12   -0.000427610006
    13   -0.005882185063
    14    0.013732227438
    15    0.094603173812
    16    0.200543918550
    17    0.185231064778
    18   -0.106231362967
    19   -0.040492071460
    20   -0.137430584511
    21    0.049366051128
    22    0.032094994622
    23    0.015141661208
    24   -0.021186860707
    25    0.002511137050
    26    0.009704640266
    27    0.005567442665
    28    0.016462208455
    29   -0.170919628400
    30   -0.362469384923
    31   -0.335813368483
    32    0.032752931489
    33   -0.081613678753
    34   -0.099415258294
    35   -0.047635439611
    36    0.059778779525
    37   -0.012219190961
    38    0.015616418434
    39    0.006050240740
    40   -0.000769417320
    41    0.004163271795
    42    0.013436210218
    43   -0.081385576124
    44   -0.172633514876
    45   -0.159065879123
    46   -0.101085568586
    47    0.051663296506
    48   -0.146217901060
    49    0.044967248922
    50   -0.031936657598
    51    0.020760691247
    52    0.022095105983
    53   -0.004373503903
    54    0.009679239456
    55   -0.004244117978
    56    0.017031418364
Sym=        a    
Ene=     -0.69410
Spin=       Alpha
Occup=    2.00000
     1    0.064209718591
     2    0.128755284765
     3    0.184245851860
     4   -0.167068803665
     5   -0.169439568653
     6   -0.164707757503
     7    0.080981143457
     8    0.082462702801
     9    0.079514640106
    10    0.000469050005
    11   -0.020372825339
    12   -0.020774418330
    13    0.000274707239
    14   -0.021180195487
    15    0.064196876334
    16    0.128784840231
    17    0.184643125993
    18    0.165320508969
    19    0.166201504191
    20   -0.166144504984
    21   -0.080035360994
    22   -0.080272730317
    23    0.080102936640
    24   -0.000087345260
    25    0.020609389760
    26    0.020724291093
    27    0.000096166304
    28   -0.020732047018
    29    0.064207664281
    30    0.128690022511
    31    0.183767688809
    32    0.168841874647
    33   -0.167971254610
    34    0.167979847772
    35   -0.081970085024
    36    0.081870427567
    37   -0.081739524150
    38    0.000033213723
    39   -0.020834289739
    40    0.020834643043
    41   -0.000131965954
    42    0.020949400902
    43    0.064207873029
    44    0.128747848845
    45    0.184236195025
    46   -0.167045720116
    47    0.167945451838
    48    0.166202428873
    49    0.080971918076
    50   -0.081225893219
    51   -0.080757910727
    52    0.000163817785
    53    0.020663361242
    54   -0.020781534771
    55    0.000098083058
    56    0.020892973802
Sym=        a    
Ene=     -0.57809
Spin=       Alpha
Occup=    2.00000
     1   -0.072103117035
     2   -0.167306792353
     3   -0.125725695556
     4    0.041580162715
     5    0.031746312728
     6    0.295834680439
     7   -0.048408447453
     8   -0.043294301817
     9   -0.185619745507
    10    0.023970533936
    11    0.008171580500
    12    0.007409790362
    13    0.000381071934
    14   -0.004082072287
    15    0.118341572971
    16    0.274897414833
    17    0.206075932273
    18    0.165638956629
    19    0.169553845202
    20   -0.260841287459
    21   -0.131518531796
    22   -0.134618357182
    23    0.183442880585
    24   -0.008396984879
    25    0.007156051504
    26    0.007713122865
    27   -0.000057539521
    28   -0.003296755778
    29   -0.023756946076
    30   -0.055044490157
    31   -0.041603511515
    32   -0.245996141956
    33   -0.110643328387
    34    0.015890426063
    35    0.141632421721
    36    0.051194730813
    37   -0.000416690424
    38   -0.007848622984
    39    0.008017849742
    40    0.008323082634
    41    0.028292767377
    42   -0.003473003412
    43   -0.021964642474
    44   -0.050887289260
    45   -0.038790150601
    46   -0.105521587454
    47   -0.234719720241
    48    0.022413580775
    49    0.048883034237
    50    0.133687518516
    51   -0.004497368454
    52   -0.008068496472
    53    0.007705168717
    54    0.006955985782
    55   -0.027902963953
    56   -0.003595005514
Sym=        a    
Ene=     -0.57698
Spin=       Alpha
Occup=    2.00000
     1   -0.070518831218
     2   -0.163822211111
     3   -0.122159704767
     4    0.294426345649
     5    0.028697969479
     6    0.033273690598
     7   -0.184944161746
     8   -0.041388022213
     9   -0.043438144000
    10   -0.012514798627
    11    0.007892135642
    12   -0.004335137947
    13    0.020862400585
    14    0.007090374445
    15   -0.026094737849
    16   -0.060617267257
    17   -0.045531300433
    18    0.013066365261
    19   -0.236850422147
    20   -0.095588746826
    21    0.002572592449
    22    0.136368407185
    23    0.042053790363
    24   -0.019976129144
    25    0.006974710855
    26   -0.003864401789
    27   -0.020451438357
    28    0.006983455301
    29   -0.021892329945
    30   -0.050859254946
    31   -0.037569697686
    32    0.022576248527
    33   -0.113370387863
    34   -0.250193543646
    35   -0.004238632128
    36    0.053511381122
    37    0.144416975523
    38    0.028767996897
    39    0.008418593738
    40   -0.003669957549
    41    0.006698898763
    42    0.008727488120
    43    0.118496330050
    44    0.275309379681
    45    0.205156187322
    46   -0.256074358584
    47    0.181894656598
    48    0.160635066336
    49    0.181596099416
    50   -0.142518874667
    51   -0.129124708197
    52    0.004826467850
    53    0.006377761720
    54   -0.003480148300
    55   -0.006344539442
    56    0.008045573765
Sym=        a    
Ene=     -0.57580
Spin=       Alpha
Occup=    2.00000
     1   -0.070411795293
     2   -0.163803235635
     3   -0.120961870758
     4    0.025378348673
     5    0.292838783109
     6    0.032879112707
     7   -0.039764227035
     8   -0.184687405775
     9   -0.043591716664
    10   -0.011993928623
    11   -0.004325078163
    12    0.007496679616
    13   -0.021237780929
    14    0.006882997834
    15   -0.023706845347
    16   -0.055220261371
    17   -0.040597888780
    18   -0.240735602286
    19    0.018715754071
    20   -0.101614475423
    21    0.138863987506
    22   -0.000955591421
    23    0.046317316000
    24   -0.019928235859
    25   -0.004000189652
    26    0.007470703209
    27    0.020863723217
    28    0.007455278428
    29    0.118225687196
    30    0.274741091399
    31    0.203380280274
    32    0.174852724333
    33   -0.254485812131
    34    0.170175091230
    35   -0.138879626140
    36    0.181460948670
    37   -0.135424112515
    38    0.003973950582
    39   -0.003433368495
    40    0.006809193064
    41    0.006791274253
    42    0.007356353466
    43   -0.024620237911
    44   -0.057354370919
    45   -0.041787925240
    46   -0.106911881800
    47    0.014632812382
    48   -0.250241123556
    49    0.048965545613
    50    0.001541564877
    51    0.145509842665
    52    0.028286605534
    53   -0.003896529472
    54    0.008371263594
    55   -0.007086686751
    56    0.008073135781
Sym=        a    
Ene=     -0.54974
Spin=       Alpha
Occup=    2.00000
     1   -0.002080094388
     2   -0.005464353446
     3   -0.001287243567
     4   -0.185942012345
     5    0.258256575627
     6   -0.066013724333
     7    0.122171289653
     8   -0.172421778337
     9    0.042640401918
    10   -0.002423909439
    11   -0.025994456672
    12    0.019170327557
    13   -0.009076817850
    14    0.006965681378
    15    0.001232769427
    16    0.002726165884
    17    0.002021239065
    18    0.196685422151
    19   -0.263609659622
    20   -0.074892866797
    21   -0.130274029764
    22    0.173749160004
    23    0.049691725613
    24   -0.003043044682
    25    0.026507759167
    26   -0.019317774905
    27   -0.010131248714
    28    0.007108029813
    29   -0.001171816154
    30   -0.003224705564
    31   -0.000332788694
    32    0.186928390607
    33    0.256051152172
    34    0.062042678631
    35   -0.123385152998
    36   -0.170946991480
    37   -0.040582215474
    38   -0.001656303262
    39   -0.025866191054
    40   -0.019452515432
    41   -0.008662700536
    42   -0.007145606733
    43    0.002241965872
    44    0.005199165856
    45    0.003119809450
    46   -0.197593449235
    47   -0.259800923371
    48    0.076267804720
    49    0.131508663851
    50    0.171208445289
    51   -0.051198941825
    52   -0.002939386898
    53    0.026513935966
    54    0.019321120561
    55   -0.010070484571
    56   -0.006797644715
Sym=        a    
Ene=     -0.54443
Spin=       Alpha
Occup=    2.00000
     1    0.001754295277
     2    0.004712749345
     3    0.000708871957
     4   -0.194071449256
     5   -0.072820591969
     6    0.262529470797
     7    0.130939781492
     8    0.049811432449
     9   -0.174592750616
    10    0.009462811737
    11    0.007115411454
    12    0.019262686970
    13   -0.002499057993
    14   -0.026450225686
    15    0.001003634802
    16    0.002835198007
    17    0.000082215688
    18    0.193881206206
    19    0.076297061984
    20    0.264218590315
    21   -0.130208673907
    22   -0.051609360601
    23   -0.175696063799
    24    0.010157833452
    25   -0.006884924202
    26   -0.018977452798
    27   -0.002140035034
    28   -0.026572875264
    29   -0.001135067494
    30   -0.002489328725
    31   -0.001884084730
    32    0.184986592597
    33   -0.065359962413
    34   -0.257617979136
    35   -0.123849062408
    36    0.043667169497
    37    0.173212789077
    38    0.008413101255
    39    0.006955318769
    40   -0.019127856016
    41   -0.002530389837
    42    0.026040636150
    43   -0.001816118219
    44   -0.004207173836
    45   -0.002412242114
    46   -0.184744222329
    47    0.064069799921
    48   -0.260469233605
    49    0.123136876509
    50   -0.042290994992
    51    0.175094826235
    52    0.008470710815
    53   -0.007242143623
    54    0.019091533590
    55   -0.002521390966
    56    0.026026838433
Sym=        a    
Ene=      0.18400
Spin=       Alpha
Occup=    0.00000
     1    0.003962283002
     2    0.009408603145
     3    0.029963115593
     4    0.257664051182
     5    0.105494393294
     6   -0.343298201824
     7   -0.376706000124
     8   -0.157205510102
     9    0.490919154184
    10   -0.000399341168
    11    0.003230129349
    12    0.007585822688
    13    0.000080483495
    14   -0.009750328893
    15   -0.003308066541
    16   -0.007773565080
    17   -0.025875040713
    18    0.180548229485
    19    0.185190400504
    20    0.341976045786
    21   -0.265675764665
    22   -0.271412010310
    23   -0.490115492749
    24    0.000033022823
    25    0.005334768104
    26    0.005428536901
    27    0.000040279492
    28    0.010068434199
    29   -0.000710034281
    30   -0.001698839849
    31   -0.005191622223
    32   -0.168127468886
    33   -0.096554194182
    34    0.076905496346
    35    0.235588609344
    36    0.134312695354
    37   -0.111374468438
    38    0.000097324884
    39   -0.002073198813
    40   -0.003923868866
    41    0.000491035422
    42    0.001994249850
    43    0.000067050181
    44    0.000108918075
    45    0.001111857186
    46   -0.245691815897
    47   -0.174332096059
    48   -0.071913787529
    49    0.346898758265
    50    0.245910756828
    51    0.102524228297
    52    0.000211304056
    53   -0.004203262700
    54   -0.006216089828
    55   -0.000603436490
    56   -0.002026800680
Sym=        a    
Ene=      0.18604
Spin=       Alpha
Occup=    0.00000
     1   -0.000734197481
     2   -0.001740569504
     3   -0.005603826580
     4    0.006894540175
     5   -0.046097888804
     6    0.035514234668
     7   -0.007631072588
     8    0.066650086442
     9   -0.050977518480
    10    0.000231216866
    11   -0.001068615554
    12   -0.000340254581
    13   -0.000288507190
    14    0.001214626242
    15    0.000524149584
    16    0.001099765714
    17    0.005680066853
    18    0.262768016756
    19   -0.302266529511
    20   -0.035545530131
    21   -0.376190047103
    22    0.436095553870
    23    0.050882350891
    24   -0.000011521417
    25   -0.008340699526
    26    0.007134650264
    27   -0.000166860515
    28   -0.001091848611
    29    0.000532361931
    30    0.001120238279
    31    0.005815501301
    32   -0.265768563460
    33    0.046137498986
    34    0.307812502478
    35    0.385961250308
    36   -0.066941207347
    37   -0.443600726905
    38   -0.000487824249
    39    0.001196719757
    40   -0.007712754433
    41    0.000193039637
    42    0.008800399585
    43   -0.000322165618
    44   -0.000478893909
    45   -0.005891619545
    46   -0.010543314911
    47    0.301118933547
    48   -0.308872686579
    49    0.017718327367
    50   -0.434956921514
    51    0.444651329289
    52    0.000260186732
    53    0.008397996524
    54   -0.000432965988
    55    0.000304329597
    56   -0.008760139130
Sym=        a    
Ene=      0.18787
Spin=       Alpha
Occup=    0.00000
     1   -0.003893378931
     2   -0.009217450115
     3   -0.029957339412
     4    0.251498308429
     5   -0.348284306091
     6    0.077189986768
     7   -0.357329722801
     8    0.506495905205
     9   -0.106193296761
    10    0.000057104432
    11   -0.009690046422
    12    0.006761115992
    13    0.000362839508
    14    0.001912059381
    15    0.000841900154
    16    0.002056592892
    17    0.005733052055
    18   -0.177609723095
    19    0.086521957115
    20   -0.085430908810
    21    0.262660837574
    22   -0.124148701100
    23    0.127768053729
    24    0.000267554182
    25    0.002578319164
    26   -0.005761783051
    27    0.000164144898
    28   -0.003005800316
    29    0.003086064183
    30    0.007224103185
    31    0.024842920753
    32    0.165615049690
    33    0.348769733366
    34    0.160830990031
    35   -0.233302431071
    36   -0.505461854741
    37   -0.227427391782
    38   -0.000302967935
    39    0.009334966671
    40    0.004317361460
    41   -0.000635142442
    42    0.004383173222
    43   -0.000024033497
    44   -0.000021394785
    45   -0.000612809319
    46   -0.263088935214
    47   -0.091971361971
    48   -0.170861225702
    49    0.386541716623
    50    0.134181113983
    51    0.251548047206
    52   -0.000013126836
    53   -0.002579371578
    54   -0.008061547714
    55    0.000092144590
    56   -0.005476800187
Sym=        a    
Ene=      0.28257
Spin=       Alpha
Occup=    0.00000
     1   -0.114632807295
     2   -0.271704857827
     3   -1.108274957642
     4   -0.188431034593
     5   -0.230281022742
     6   -0.118725829951
     7    0.537594506991
     8    0.723583842463
     9    0.202228989497
    10   -0.008264873769
    11   -0.021723840825
    12   -0.011828069508
    13   -0.003306528553
    14    0.008066393190
    15    0.145707080254
    16    0.344244574445
    17    1.414648150473
    18   -0.222963173919
    19   -0.267833414845
    20    0.199947530250
    21    0.613154449197
    22    0.802789228327
    23   -0.468426371213
    24    0.005293737073
    25   -0.020454768124
    26   -0.010272722767
    27    0.003102997493
    28    0.000454905622
    29   -0.048923667123
    30   -0.116260354472
    31   -0.471644567486
    32   -0.013970312060
    33   -0.168642798161
    34    0.074297296850
    35    0.167072125871
    36    0.589571413169
    37   -0.203383484018
    38   -0.000007384835
    39   -0.024342522482
    40   -0.017171924754
    41   -0.012326205989
    42    0.003322402919
    43    0.017096522412
    44    0.040470112507
    45    0.165583977517
    46   -0.047335853482
    47   -0.130836979978
    48    0.003225594159
    49    0.236846241421
    50    0.508760043610
    51   -0.052572945234
    52    0.003723743199
    53   -0.025202768048
    54   -0.015975942678
    55    0.012201354739
    56    0.005476967751
Sym=        a    
Ene=      0.28593
Spin=       Alpha
Occup=    0.00000
     1   -0.034489277387
     2   -0.081399762132
     3   -0.340008249087
     4    0.044352554770
     5   -0.105429765581
     6   -0.101240195989
     7   -0.284151085815
     8    0.369030556365
     9    0.364140742435
    10    0.005941135858
    11   -0.014114950776
    12    0.021815183068
    13   -0.011001111536
    14   -0.015050314126
    15   -0.067493224357
    16   -0.158876107776
    17   -0.667411504362
    18    0.161604280490
    19    0.013002305816
    20   -0.145310705979
    21   -0.537077817988
    22    0.111482990720
    23    0.458147592238
    24    0.004494405337
    25   -0.017707093641
    26    0.018222674806
    27    0.010895119263
    28   -0.013797910332
    29   -0.063829886193
    30   -0.151138624661
    31   -0.626446072608
    32    0.156233210933
    33   -0.132803664299
    34    0.008924485641
    35   -0.525076977779
    36    0.428857453275
    37    0.128961495337
    38   -0.011656302801
    39   -0.013282326259
    40    0.018661933138
    41    0.001363683723
    42   -0.018228334213
    43    0.165827644038
    44    0.391482506628
    45    1.633838396764
    46    0.273454210327
    47   -0.251249338971
    48   -0.255503300429
    49   -0.777846604191
    50    0.683680596118