[Molden Format]
[Atoms] (Angs)
  N      1    7      0.52000000      0.53000000      0.51000000
  N      2    7     -0.52000000     -0.52000000      0.52000000
  N      3    7     -0.52000000      0.52000000     -0.52000000
  N      4    7      0.52000000     -0.52000000     -0.52000000
[GTO]
1    0
S    7    1.000000
   1.14200000E+04    5.28980000E-04 
   1.71200000E+03    4.09115000E-03 
   3.89300000E+02    2.10116100E-02 
   1.10000000E+02    8.16383500E-02 
   3.55700000E+01    2.35649920E-01 
   1.25400000E+01    4.37926150E-01 
   4.64400000E+00    3.50060070E-01 
S    7    1.000000
   1.14200000E+04    1.85000000E-06 
   1.71200000E+03    6.99000000E-06 
   1.10000000E+02   -7.36470000E-04 
   3.55700000E+01   -7.18168000E-03 
   1.25400000E+01   -4.67902200E-02 
   4.64400000E+00   -1.25123920E-01 
   5.11800000E-01    7.86270290E-01 
S    1    1.000000
   1.29300000E+00    1.00000000E+00 
S    1    1.000000
   1.78700000E-01    1.00000000E+00 
P    3    1.000000
   2.66300000E+01    1.46700000E-02 
   5.94800000E+00    9.17640000E-02 
   1.74200000E+00    2.98683000E-01 
P    1    1.000000
   5.55000000E-01    1.00000000E+00 
P    1    1.000000
   1.72500000E-01    1.00000000E+00 
D    1    1.000000
   1.65400000E+00    1.00000000E+00 
D    1    1.000000
   4.69000000E-01    1.00000000E+00 
F    1    1.000000
   1.09300000E+00    1.00000000E+00 

2    0
S    7    1.000000
   1.14200000E+04    5.28980000E-04 
   1.71200000E+03    4.09115000E-03 
   3.89300000E+02    2.10116100E-02 
   1.10000000E+02    8.16383500E-02 
   3.55700000E+01    2.35649920E-01 
   1.25400000E+01    4.37926150E-01 
   4.64400000E+00    3.50060070E-01 
S    7    1.000000
   1.14200000E+04    1.85000000E-06 
   1.71200000E+03    6.99000000E-06 
   1.10000000E+02   -7.36470000E-04 
   3.55700000E+01   -7.18168000E-03 
   1.25400000E+01   -4.67902200E-02 
   4.64400000E+00   -1.25123920E-01 
   5.11800000E-01    7.86270290E-01 
S    1    1.000000
   1.29300000E+00    1.00000000E+00 
S    1    1.000000
   1.78700000E-01    1.00000000E+00 
P    3    1.000000
   2.66300000E+01    1.46700000E-02 
   5.94800000E+00    9.17640000E-02 
   1.74200000E+00    2.98683000E-01 
P    1    1.000000
   5.55000000E-01    1.00000000E+00 
P    1    1.000000
   1.72500000E-01    1.00000000E+00 
D    1    1.000000
   1.65400000E+00    1.00000000E+00 
D    1    1.000000
   4.69000000E-01    1.00000000E+00 
F    1    1.000000
   1.09300000E+00    1.00000000E+00 

3    0
S    7    1.000000
   1.14200000E+04    5.28980000E-04 
   1.71200000E+03    4.09115000E-03 
   3.89300000E+02    2.10116100E-02 
   1.10000000E+02    8.16383500E-02 
   3.55700000E+01    2.35649920E-01 
   1.25400000E+01    4.37926150E-01 
   4.64400000E+00    3.50060070E-01 
S    7    1.000000
   1.14200000E+04    1.85000000E-06 
   1.71200000E+03    6.99000000E-06 
   1.10000000E+02   -7.36470000E-04 
   3.55700000E+01   -7.18168000E-03 
   1.25400000E+01   -4.67902200E-02 
   4.64400000E+00   -1.25123920E-01 
   5.11800000E-01    7.86270290E-01 
S    1    1.000000
   1.29300000E+00    1.00000000E+00 
S    1    1.000000
   1.78700000E-01    1.00000000E+00 
P    3    1.000000
   2.66300000E+01    1.46700000E-02 
   5.94800000E+00    9.17640000E-02 
   1.74200000E+00    2.98683000E-01 
P    1    1.000000
   5.55000000E-01    1.00000000E+00 
P    1    1.000000
   1.72500000E-01    1.00000000E+00 
D    1    1.000000
   1.65400000E+00    1.00000000E+00 
D    1    1.000000
   4.69000000E-01    1.00000000E+00 
F    1    1.000000
   1.09300000E+00    1.00000000E+00 

4    0
S    7    1.000000
   1.14200000E+04    5.28980000E-04 
   1.71200000E+03    4.09115000E-03 
   3.89300000E+02    2.10116100E-02 
   1.10000000E+02    8.16383500E-02 
   3.55700000E+01    2.35649920E-01 
   1.25400000E+01    4.37926150E-01 
   4.64400000E+00    3.50060070E-01 
S    7    1.000000
   1.14200000E+04    1.85000000E-06 
   1.71200000E+03    6.99000000E-06 
   1.10000000E+02   -7.36470000E-04 
   3.55700000E+01   -7.18168000E-03 
   1.25400000E+01   -4.67902200E-02 
   4.64400000E+00   -1.25123920E-01 
   5.11800000E-01    7.86270290E-01 
S    1    1.000000
   1.29300000E+00    1.00000000E+00 
S    1    1.000000
   1.78700000E-01    1.00000000E+00 
P    3    1.000000
   2.66300000E+01    1.46700000E-02 
   5.94800000E+00    9.17640000E-02 
   1.74200000E+00    2.98683000E-01 
P    1    1.000000
   5.55000000E-01    1.00000000E+00 
P    1    1.000000
   1.72500000E-01    1.00000000E+00 
D    1    1.000000
   1.65400000E+00    1.00000000E+00 
D    1    1.000000
   4.69000000E-01    1.00000000E+00 
F    1    1.000000
   1.09300000E+00    1.00000000E+00 

[MO]
Sym=X
Ene= -15.750876
Spin=Alpha
Occup=1
     1    4.926441119000e-01
     2   -3.421732961668e-03
     3    2.056523861577e-02
     4    7.804210717449e-04
     5   -1.015784067566e-03
     6   -1.020289318738e-03
     7   -1.010924025319e-03
     8    2.310598651766e-04
     9    2.596641902793e-04
    10    2.094078265322e-04
    11   -1.719180149357e-04
    12   -1.682473479490e-04
    13   -1.740679394110e-04
    14    3.945725444786e-06
    15    1.527718445846e-04
    16    1.460214730236e-04
    17    2.878824297325e-06
    18    1.404367263367e-04
    19    7.843090929202e-06
    20   -3.223326391199e-05
    21   -4.367777015641e-05
    22    5.996932542385e-06
    23   -5.208262578382e-05
    24   -1.555207994221e-05
    25    7.644125831703e-06
    26    8.403543994368e-06
    27   -1.436038882544e-06
    28    3.155630071754e-05
    29   -1.337137421082e-05
    30    1.200690721596e-05
    31    4.659258144864e-01
    32   -3.160591179603e-03
    33    1.940604140164e-02
    34    8.348759330102e-04
    35    9.469012241155e-04
    36    9.492869125056e-04
    37   -9.609563052256e-04
    38   -1.732920111558e-04
    39   -1.463105071895e-04
    40    1.558194733647e-04
    41    1.901310779956e-04
    42    1.967650518045e-04
    43   -1.954049114216e-04
    44    3.887629380194e-06
    45   -1.409470131400e-04
    46   -1.464229241149e-04
    47   -2.895281670124e-06
    48    1.382507562610e-04
    49   -1.222131393600e-06
    50    2.037031571246e-05
    51    6.290003719889e-06
    52   -8.259216659420e-06
    53   -1.337547577793e-05
    54   -1.126035360646e-05
    55   -1.007045280881e-05
    56   -7.222533872141e-06
    57    3.920007290869e-06
    58    2.741388170144e-05
    59    6.328985977208e-06
    60   -9.175918038860e-06
    61    5.115736410211e-01
    62   -3.607397173221e-03
    63    2.138884776219e-02
    64    7.417705087581e-04
    65    1.067703509205e-03
    66   -1.052227478555e-03
    67    1.064832860349e-03
    68   -2.727174982869e-04
    69    2.969932466396e-04
    70   -2.931936262491e-04
    71    1.593468128487e-04
    72   -1.521221490060e-04
    73    1.546417101958e-04
    74    4.506467728082e-07
    75    1.547689637650e-04
    76   -1.449417791406e-04
    77    5.671137920966e-06
    78   -1.493674691245e-04
    79   -3.956472632422e-06
    80   -6.043133436513e-05
    81    7.172045510147e-05
    82    5.149974149989e-06
    83    6.134049233355e-05
    84    1.778998497106e-05
    85   -1.255867505860e-05
    86    1.344115303910e-05
    87    1.066225232714e-06
    88    3.511053468859e-05
    89    1.317083886152e-05
    90    1.255164929018e-05
    91    4.857680899230e-01
    92   -3.353933827542e-03
    93    2.026841260122e-02
    94    7.953741953949e-04
    95   -1.000287727966e-03
    96    1.002814611647e-03
    97    9.976037810435e-04
    98    2.170391833737e-04
    99   -1.893296549796e-04
   100   -2.368439057826e-04
   101   -1.767458506348e-04
   102    1.835046470546e-04
   103    1.721269019831e-04
   104   -4.438524560625e-06
   105   -1.402452625754e-04
   106    1.458686535107e-04
   107   -2.989522329956e-06
   108   -1.501435507103e-04
   109   -1.166631734642e-05
   110    4.895038927540e-05
   111   -3.431964772852e-05
   112   -8.399030879107e-06
   113    2.447615659239e-05
   114    1.393707757025e-05
   115    1.423802994953e-05
   116   -1.127460678772e-05
   117   -4.106728723589e-06
   118    3.101772186476e-05
   119   -7.174130680220e-06
   120   -9.944589981802e-06
Sym=X
Ene= -15.749967
Spin=Alpha
Occup=1
     1   -2.989385554859e-01
     2    2.983882567128e-03
     3   -1.287504889632e-02
     4    6.904458121689e-04
     5    6.666037283684e-04
     6    6.632680300549e-04
     7    6.597958607887e-04
     8   -1.385401028594e-03
     9   -7.531372624804e-05
    10   -1.091321257420e-03
    11   -4.185472767675e-04
    12   -4.898177639795e-05
    13   -3.347706355564e-04
    14    3.705386362643e-05
    15    1.027940163203e-04
    16   -1.278959376156e-04
    17    1.155885911244e-04
    18   -7.728308819215e-05
    19    1.240956982550e-04
    20    7.601877286153e-04
    21   -8.456686355829e-06
    22    3.999870039324e-04
    23    1.611434284820e-04
    24    3.713730326938e-05
    25   -1.459228928593e-04
    26    1.785616327728e-05
    27   -2.012292286754e-04
    28   -3.778679958287e-05
    29   -6.572927824134e-05
    30   -4.890173527818e-05
    31   -1.471674983799e-01
    32    1.444887815256e-03
    33   -6.328269154536e-03
    34    3.063694174682e-04
    35   -3.153850475710e-04
    36   -3.283970769464e-04
    37    3.315595736103e-04
    38   -4.275744033677e-04
    39    8.736137741834e-04
    40   -7.483041223617e-04
    41   -1.163584676285e-04
    42    2.561299544582e-04
    43   -2.238078360352e-04
    44    5.043426616279e-05
    45    1.030772987540e-04
    46   -1.253848071062e-04
    47   -1.111046056724e-04
    48   -7.895775972235e-05
    49    1.856364784194e-04
    50    1.427233773786e-04
    51   -6.348261537800e-04
    52   -3.959760065779e-04
    53   -7.084808544611e-05
    54    2.117643609248e-05
    55   -1.171318225667e-05
    56    1.604427730847e-04
    57    2.039380406090e-04
    58   -1.568245084737e-05
    59   -1.438678668679e-05
    60   -9.666254729764e-05
    61    8.190083142709e-01
    62   -8.262592229893e-03
    63    3.535269236053e-02
    64   -2.019082537258e-03
    65    1.844836507029e-03
    66   -1.822876439664e-03
    67    1.836830324208e-03
    68   -2.562881848554e-03
    69    2.370198645519e-03
    70   -2.268385616131e-03
    71   -8.223658972311e-04
    72    7.692291977736e-04
    73   -7.359472109920e-04
    74    2.191230742680e-05
    75    9.416380083846e-05
    76   -1.210495160309e-04
    77   -1.203032349481e-05
    78   -7.166789287470e-05
    79    7.712378014159e-05
    80   -8.687652746573e-04
    81    7.618797981686e-04
    82   -5.498043467978e-05
    83    9.328672169864e-04
    84    9.421961220934e-05
    85   -4.219277018988e-05
    86    2.172599459097e-05
    87   -2.537632793165e-05
    88    8.723680059955e-05
    89    8.790329518382e-05
    90    1.015298216394e-04
    91   -4.182396172811e-01
    92    4.156785856102e-03
    93   -1.802244327699e-02
    94    9.430161676873e-04
    95    9.361909029124e-04
    96   -9.373185226302e-04
    97   -9.226371481005e-04
    98   -1.625325748433e-03
    99    1.464070083325e-03
   100    4.446949515205e-04
   101   -4.997501060209e-04
   102    4.530405833508e-04
   103    1.571247139845e-04
   104   -1.076454990861e-04
   105    1.012452076480e-04
   106   -1.297983211474e-04
   107    1.416609764000e-05
   108   -7.676776635316e-05
   109   -3.878535075278e-04
   110   -2.488999835187e-04
   111    1.523005794476e-04
   112    4.783134405537e-05
   113   -8.586907572904e-04
   114   -3.679803303835e-05
   115    9.328910439587e-05
   116   -1.149241425026e-04
   117    2.532498351264e-05
   118   -4.488271717108e-05
   119    1.403945178053e-04
   120    1.537945215856e-04
Sym=X
Ene= -15.749950
Spin=Alpha
Occup=1
     1    7.822804395560e-01
     2   -7.851866873259e-03
     3    3.374849074681e-02
     4   -1.873544271425e-03
     5   -1.746356387939e-03
     6   -1.764381697070e-03
     7   -1.735524163322e-03
     8    1.978580906141e-03
     9    2.529533902694e-03
    10    2.289815392469e-03
    11    6.454513893596e-04
    12    8.050285917445e-04
    13    7.319047133606e-04
    14   -4.955707157153e-06
    15    1.359013975587e-04
    16    4.193333750142e-05
    17    4.686105284365e-05
    18    9.934335757051e-05
    19   -2.108971731473e-06
    20   -6.590920180734e-04
    21   -9.806478041238e-04
    22    1.742337372473e-04
    23   -7.908264417917e-04
    24   -9.408667409039e-05
    25    2.512028577714e-05
    26    9.328432911545e-05
    27   -8.518556489912e-05
    28    8.367004978022e-05
    29   -9.049440922165e-05
    30    4.083644759148e-05
    31   -2.310901126243e-01
    32    2.280323172459e-03
    33   -9.958636489491e-03
    34    5.004628258409e-04
    35   -5.157123531105e-04
    36   -5.223411487315e-04
    37    5.101825998394e-04
    38    7.411266280761e-04
    39    1.283092049066e-03
    40    8.872366098480e-05
    41    2.319380678386e-04
    42    3.853853657872e-04
    43    1.180786750115e-05
    44   -1.092174056037e-04
    45    1.398378738250e-04
    46    4.639118332119e-05
    47   -4.708239570600e-05
    48    1.001686957242e-04
    49   -3.932948649169e-04
    50    1.467188463721e-04
    51   -1.710301076084e-04
    52   -1.686083166711e-04
    53    6.791205511120e-04
    54    1.643248626089e-05
    55   -1.557241607771e-04
    56   -8.650868305843e-05
    57    8.366482748133e-05
    58   -2.552999377508e-05
    59   -1.598216403278e-04
    60    1.105967101334e-04
    61   -3.117855752217e-02
    62    3.167432598066e-04
    63   -1.336955004843e-03
    64    7.985231579732e-05
    65   -6.854284152370e-05
    66    6.132605568474e-05
    67   -7.127382667328e-05
    68    3.432034950158e-04
    69    7.438603548901e-04
    70    6.610445825705e-04
    71    9.773796540819e-05
    72    2.073228692742e-04
    73    1.910593658175e-04
    74    8.460351351998e-05
    75    1.433264084735e-04
    76    4.884771186417e-05
    77    9.392210615206e-05
    78    1.060627145565e-04
    79    2.970276899536e-04
    80    5.183122887304e-04
    81    1.207401522470e-04
    82    3.267301724373e-04
    83    3.163241547593e-04
    84   -1.171988241559e-05
    85    1.720166643959e-04
    86   -3.463474146111e-05
    87    1.646345705236e-04
    88   -2.942571746010e-06
    89    1.283966765239e-04
    90    3.841114196398e-05
    91   -5.388850707577e-01
    92    5.387156718859e-03
    93   -2.323644833224e-02
    94    1.261605133425e-03
    95    1.196880660495e-03
    96   -1.210578885327e-03
    97   -1.201489223329e-03
    98   -9.027998018879e-04
    99    1.979417540936e-03
   100    1.748505087677e-03
   101   -3.081618816127e-04
   102    6.158491359543e-04
   103    5.504071137074e-04
   104    2.942109534756e-05
   105    1.387460336045e-04
   106    4.805445422281e-05
   107   -9.256068978289e-05
   108    1.030936434465e-04
   109    9.922095471440e-05
   110   -2.978122248002e-04
   111    9.345144065044e-04
   112   -3.324335872570e-04
   113   -4.217108855450e-04
   114   -6.890228442407e-05
   115   -5.875826364501e-06
   116    1.437528173005e-04
   117   -1.684417331378e-04
   118   -5.811255303631e-05
   119    6.177049541504e-05
   120   -3.123564985935e-05
Sym=X
Ene= -15.749921
Spin=Alpha
Occup=1
     1   -1.135371182962e-01
     2    1.149197236295e-03
     3   -4.914733099821e-03
     4    2.873310311853e-04
     5    2.650919075066e-04
     6    2.626935423323e-04
     7    2.459974446971e-04
     8   -9.200474103863e-04
     9   -5.541518247984e-04
    10    4.592356141489e-04
    11   -2.814527691340e-04
    12   -1.758432095691e-04
    13    1.192426201669e-04
    14   -1.143424023992e-04
    15   -5.224910976701e-05
    16   -1.171271168621e-04
    17    3.060301829118e-05
    18    1.251636933892e-04
    19   -4.177375765137e-04
    20   -1.061524268911e-05
    21   -2.341876072292e-04
    22    1.093019936424e-04
    23    6.068393334738e-04
    24   -3.750829352528e-06
    25    1.128871818541e-04
    26    1.632410971475e-04
    27   -5.923270239340e-05
    28   -6.782358680140e-06
    29    1.203068467582e-04
    30   -1.487426217544e-04
    31    8.153424789097e-01
    32   -8.127410432451e-03
    33    3.514099227581e-02
    34   -1.876585066639e-03
    35    1.808091184756e-03
    36    1.809621421675e-03
    37   -1.829494880852e-03
    38   -2.418126097234e-03
    39   -2.054196807299e-03
    40    2.488078054950e-03
    41   -7.634930109756e-04
    42   -6.616923534667e-04
    43    7.830001547964e-04
    44   -1.964208714376e-05
    45   -5.171775522960e-05
    46   -1.177198395361e-04
    47   -3.139031168567e-05
    48    1.228229865217e-04
    49   -8.320106943098e-05
    50    9.917290701122e-04
    51    7.705521483569e-04
    52   -1.065727846086e-04
    53   -7.340209831693e-04
    54   -9.618709270563e-05
    55   -1.098206812518e-04
    56   -6.000750108114e-05
    57    5.783431594137e-05
    58    8.954845773971e-05
    59    3.579524753675e-05
    60   -6.493344080205e-05
    61   -1.531209203545e-01
    62    1.568266777867e-03
    63   -6.622941368122e-03
    64    4.120578966690e-04
    65   -3.394758287642e-04
    66    3.442802298066e-04
    67   -3.518056590783e-04
    68   -3.191827545677e-04
    69   -6.553530990482e-04
    70    1.071959531997e-03
    71   -6.886220547025e-05
    72   -2.083980216275e-04
    73    3.306362460785e-04
    74    8.853023383118e-05
    75   -5.039528326226e-05
    76   -1.229311117383e-04
    77   -8.428328394323e-05
    78    1.221128727780e-04
    79    3.162313789533e-04
    80    5.800946172002e-05
    81   -6.409731951042e-04
    82   -2.959240427152e-04
    83    1.929088193070e-04
    84   -2.816553361480e-05
    85    5.573700859219e-05
    86   -1.851946040622e-04
    87   -1.522812220937e-04
    88   -1.661194806968e-05
    89    3.502509664079e-05
    90    1.171507741419e-04
    91   -5.055924827835e-01
    92    5.102676629599e-03
    93   -2.182365799820e-02
    94    1.252739024951e-03
    95    1.134712785482e-03
    96   -1.128420651678e-03
    97   -1.131808276189e-03
    98   -1.797950403830e-03
    99    8.252802181844e-04
   100    1.838866259824e-03
   101   -5.704750299986e-04
   102    2.959038931368e-04
   103    5.827461851392e-04
   104    5.260050391424e-05
   105   -5.959621057319e-05
   106   -1.127219587505e-04
   107    8.353651149308e-05
   108    1.206490318769e-04
   109    1.813505693058e-04
   110   -9.302502744973e-04
   111    3.471415969073e-04
   112    2.937701569933e-04
   113   -3.210527264418e-04
   114   -6.501939976469e-05
   115   -1.647416836767e-04
   116    3.480032433715e-05
   117    1.524580772898e-04
   118   -5.510831378283e-05
   119   -4.772764386325e-05
   120    3.429263011228e-05
Sym=X
Ene= -1.653473
Spin=Alpha
Occup=1
     1   -9.406728041139e-02
     2    2.197494527565e-01
     3    5.380607518887e-02
     4    6.112849260229e-02
     5   -3.700119743365e-02
     6   -3.695547007599e-02
     7   -3.702835478278e-02
     8   -5.134923431853e-02
     9   -5.140742642570e-02
    10   -5.127474302065e-02
    11   -8.872517549429e-03
    12   -8.914665716827e-03
    13   -8.828683868113e-03
    14   -1.046965166392e-05
    15    4.639904828336e-03
    16    4.589962039483e-03
    17   -3.238927930597e-06
    18    4.542516791254e-03
    19   -1.136134245614e-04
    20    9.553850474840e-03
    21    9.541197590001e-03
    22   -6.343129491573e-05
    23    9.530516771324e-03
    24    1.768461936487e-03
    25   -1.079307732383e-03
    26   -1.036336466406e-03
    27   -1.787908512403e-05
    28   -1.136507153471e-03
    29    1.337921202742e-03
    30   -1.311641076540e-03
    31   -9.343039454954e-02
    32    2.182949114982e-01
    33    5.348302346026e-02
    34    6.070312497189e-02
    35    3.642567828000e-02
    36    3.667322432808e-02
    37   -3.716460506159e-02
    38    5.059706852874e-02
    39    5.090758333453e-02
    40   -5.150832841227e-02
    41    8.737441912659e-03
    42    8.788151411876e-03
    43   -8.862952528469e-03
    44    7.041148565537e-05
    45   -4.604633528211e-03
    46   -4.624491785103e-03
    47   -4.214172811458e-05
    48    4.489027413506e-03
    49    9.251510738232e-05
    50   -9.500378302245e-03
    51   -9.543937419875e-03
    52   -7.335504742028e-05
    53    9.349953959178e-03
    54    1.720673180593e-03
    55    1.079885758131e-03
    56    1.076101033431e-03
    57    6.813188984864e-06
    58   -1.136405169655e-03
    59   -1.341099930886e-03
    60    1.292106873999e-03
    61   -9.470268357270e-02
    62    2.212062137263e-01
    63    5.412696514401e-02
    64    6.157125308894e-02
    65    3.756408234406e-02
    66   -3.680718928210e-02
    67    3.730761531696e-02
    68    5.209757006761e-02
    69   -5.116667656569e-02
    70    5.177679954994e-02
    71    9.012613318583e-03
    72   -8.882827166996e-03
    73    8.960228017813e-03
    74   -2.647064774355e-06
    75    4.691189784981e-03
    76   -4.552693271055e-03
    77    8.379204386475e-05
    78   -4.571944008807e-03
    79   -1.906856718392e-05
    80    9.736316709677e-03
    81   -9.539972473003e-03
    82    1.200911319729e-04
    83   -9.583113024127e-03
    84   -1.759873148969e-03
    85    1.076348916517e-03
    86   -1.046940154587e-03
    87    6.035039133419e-05
    88   -1.133034153656e-03
    89   -1.337410760529e-03
    90   -1.362023179207e-03
    91   -9.405821232042e-02
    92    2.197318439661e-01
    93    5.380101524211e-02
    94    6.113278684144e-02
    95   -3.699069232595e-02
    96    3.723811339210e-02
    97    3.673425723040e-02
    98   -5.134209810157e-02
    99    5.165278052877e-02
   100    5.102165984267e-02
   101   -8.873628360872e-03
   102    8.924828807426e-03
   103    8.821770143593e-03
   104   -7.492707663102e-05
   105   -4.569844918247e-03
   106    4.588032586769e-03
   107   -4.279889211641e-05
   108   -4.608975108883e-03
   109   -1.301316954125e-04
   110   -9.498911871278e-03
   111    9.540450409427e-03
   112   -7.433950945486e-05
   113   -9.585629014678e-03
   114   -1.761323611816e-03
   115   -1.042620928751e-03
   116    1.004370918691e-03
   117   -2.693276940908e-05
   118   -1.135391827781e-03
   119    1.367600344731e-03
   120    1.343130058299e-03
Sym=X
Ene= -1.044706
Spin=Alpha
Occup=1
     1    1.138395175914e-01
     2   -2.962255469345e-01
     3   -7.782626013700e-02
     4   -2.147883100183e-01
     5    8.997341781656e-03
     6   -5.779340702199e-02
     7    4.088481340116e-02
     8    2.269481668282e-02
     9   -6.790992970317e-02
    10    6.604456949547e-02
    11    1.296846755758e-02
    12   -1.027565323036e-02
    13    2.423748014978e-02
    14   -5.014458781315e-03
    15   -4.953799414836e-03
    16    1.355466860190e-03
    17   -4.498479751452e-03
    18    4.441246814922e-03
    19   -9.988488581157e-03
    20   -1.462101221455e-02
    21   -1.102979715428e-03
    22   -8.950246688284e-03
    23    5.526672955931e-03
    24   -6.109415179386e-05
    25    2.716223124872e-03
    26    1.421632034055e-03
    27    2.153834160855e-03
    28   -3.496926150630e-04
    29    1.721521299983e-03
    30    1.078857905320e-04
    31   -1.218524157787e-01
    32    3.170786645032e-01
    33    8.331236952553e-02
    34    2.300690940203e-01
    35    1.071214311853e-02
    36   -5.494349668816e-02
    37   -3.447733511629e-02
    38    2.583868504362e-02
    39   -6.342268390161e-02
    40   -5.833545717847e-02
    41    1.430416301933e-02
    42   -8.623121171153e-03
    43   -2.290855362849e-02
    44    4.384171905247e-03
    45   -4.502338000094e-03
    46    1.712537502478e-03
    47    4.388047727117e-03
    48   -3.959184148321e-03
    49    8.845311172674e-03
    50   -1.412046079778e-02
    51   -6.428946445720e-04
    52    8.782762212114e-03
    53   -4.249365161461e-03
    54    8.268496158565e-05
    55    2.497141921033e-03
    56    1.205517939226e-03
    57   -2.121362134747e-03
    58    4.239201039785e-04
    59    1.518352060221e-03
    60    2.580830903652e-04
    61    6.712059470435e-02
    62   -1.746884344260e-01
    63   -4.587400609811e-02
    64   -1.267130236174e-01
    65   -5.010151203655e-02
    66   -7.352215416396e-02
    67   -1.751736540739e-02
    68   -7.433190905992e-02
    69   -9.370672458943e-02
    70   -2.999606642796e-02
    71   -2.338701277395e-02
    72   -1.987769737632e-02
    73   -1.194092329104e-02
    74   -2.197670365274e-03
    75   -6.564217936728e-03
    76   -5.188076636749e-03
    77   -8.236126858652e-03
    78   -2.163274004672e-03
    79   -4.377825271360e-03
    80   -1.654192032701e-02
    81   -8.864175563650e-03
    82   -1.650693963590e-02
    83   -2.283411866149e-03
    84    9.510211998438e-05
    85   -2.137781556842e-03
    86   -2.807086956353e-04
    87   -3.988374837817e-03
    88   -3.012682004127e-04
    89   -2.004382919138e-03
    90    1.311453762955e-03
    91   -6.006702554841e-02
    92    1.563705975149e-01
    93    4.104732095663e-02
    94    1.136824363471e-01
    95   -4.694627689538e-02
    96   -7.486481709297e-02
    97    2.337178457747e-02
    98   -6.950236808918e-02
    99   -9.615385810196e-02
   100    3.742176968513e-02
   101   -2.175569924522e-02
   102   -2.088234898143e-02
   103    1.347723231890e-02
   104    2.903747710473e-03
   105   -6.739162220410e-03
   106   -4.750129973295e-03
   107    8.172334126423e-03
   108    2.500346900572e-03
   109    5.823401876802e-03
   110   -1.679862468060e-02
   111   -8.167503386362e-03
   112    1.638740895804e-02
   113    3.252439313948e-03
   114    1.061854281458e-05
   115   -2.343307777229e-03
   116   -5.673756125996e-06
   117    3.930783020444e-03
   118    1.996931466068e-04
   119   -2.114718968678e-03
   120    1.224865784704e-03
Sym=X
Ene= -1.041331
Spin=Alpha
Occup=1
     1   -3.220944359749e-02
     2    8.389085481270e-02
     3    2.204097692020e-02
     4    6.127134832104e-02
     5    7.998790848538e-02
     6   -3.866827295230e-02
     7   -3.828927548482e-02
     8    1.057841849186e-01
     9   -5.559188132712e-02
    10   -5.517862764469e-02
    11    2.538965970491e-02
    12   -1.639341652918e-02
    13   -1.645636080644e-02
    14    4.475651023218e-03
    15   -3.808474394263e-03
    16    7.332745965885e-03
    17   -7.921730802334e-03
    18   -3.854778077127e-03
    19    9.020172282733e-03
    20   -7.122864423176e-03
    21    1.710461604120e-02
    22   -1.594487830144e-02
    23   -7.242649547954e-03
    24   -2.201251578952e-04
    25   -5.645763085145e-04
    26   -2.820079044483e-03
    27    3.828064207873e-03
    28    1.136095063414e-04
    29    6.588565822164e-04
    30    2.565555969387e-03
    31    8.673316774258e-02
    32   -2.258290880554e-01
    33   -5.937413522682e-02
    34   -1.647354737251e-01
    35    6.271440758200e-02
    36   -5.524487945428e-02
    37   -7.533688656333e-04
    38    7.722436808987e-02
    39   -8.327357570872e-02
    40    7.139740818211e-03
    41    1.456004473743e-02
    42   -2.706058721916e-02
    43    7.429201014954e-03
    44   -2.120392712399e-04
    45   -5.776336744270e-03
    46    5.379337220089e-03
    47    7.825451436301e-03
    48    5.083117291530e-04
    49   -4.510675954869e-04
    50   -9.488579608454e-03
    51    1.478078870553e-02
    52    1.575097945135e-02
    53   -2.021093274906e-03
    54   -3.007961253636e-04
    55    8.910649255471e-04
    56   -1.432360132666e-03
    57   -3.812850112510e-03
    58   -2.978739023338e-04
    59    1.767345590520e-03
    60    1.424247484598e-03
    61    8.628195021719e-02
    62   -2.247850036229e-01
    63   -5.902079210395e-02
    64   -1.643274161437e-01
    65    6.293623327708e-02
    66   -1.150675782817e-03
    67   -5.605384619756e-02
    68    7.742339657785e-02
    69    6.565565677891e-03
    70   -8.444012818149e-02
    71    1.453474493212e-02
    72    7.151377790960e-03
    73   -2.747761496730e-02
    74   -6.773492194859e-03
    75    4.136638139862e-04
    76    5.360956609328e-03
    77    4.133802845453e-03
    78   -5.816634137730e-03
    79   -1.365658398292e-02
    80   -2.158663181382e-03
    81    1.476965788074e-02
    82    8.305729095998e-03
    83   -9.543004818042e-03
    84   -2.432523858403e-04
    85   -2.025473773342e-03
    86    3.190542110673e-03
    87    1.980172329617e-03
    88   -3.174207752677e-04
    89   -4.189864658031e-04
    90   -2.114011933205e-03
    91   -1.408066497068e-01
    92    3.667273771197e-01
    93    9.635438210194e-02
    94    2.678014720720e-01
    95    4.565144741360e-02
    96    1.670031848228e-02
    97    1.572151764537e-02
    98    4.884513596694e-02
    99    3.602303080917e-02
   100    3.461174637924e-02
   101    3.698160902225e-03
   102    1.835847020582e-02
   103    1.791320394427e-02
   104    2.283041149284e-03
   105    2.440986835183e-03
   106    3.405035740873e-03
   107   -4.167720625541e-03
   108    2.408469639064e-03
   109    4.559971136258e-03
   110    2.940611717987e-04
   111    1.244301576630e-02
   112   -8.413622109744e-03
   113    1.865443104235e-04
   114   -3.537204935250e-04
   115   -5.470745029515e-04
   116    1.706603873159e-03
   117   -2.023669785222e-03
   118    4.997792932114e-04
   119    7.078582239792e-04
   120   -9.963060709123e-04
Sym=X
Ene= -1.038004
Spin=Alpha
Occup=1
     1    1.134758771478e-01
     2   -2.958049541098e-01
     3   -7.772486970291e-02
     4   -2.175281757961e-01
     5    6.275935134421e-03
     6    3.943965059002e-02
     7   -5.914614102863e-02
     8    1.948418921629e-02
     9    6.464217865381e-02
    10   -6.977768268579e-02
    11    1.245901802769e-02
    12    2.415292331556e-02
    13   -1.096649875683e-02
    14    6.249546277218e-03
    15    4.575328659984e-03
    16    1.529783008396e-03
    17    2.230755457513e-03
    18   -4.622895326591e-03
    19    1.272980526356e-02
    20    5.965424400763e-03
    21   -7.452365203419e-04
    22    4.537518889644e-03
    23   -1.433463181425e-02