[Molden Format]
[Atoms] (Angs)
  N      1    7     -0.64251165     -0.00000000     -0.63126166
  N      2    7      0.73569921      0.42457822     -0.30804628
  N      3    7     -0.30735811      0.42457822      0.72888739
  N      4    7      0.21417055     -0.84915644      0.21042055
[GTO]
1    0
S    7    1.000000
   1.14200000E+04    5.28980000E-04 
   1.71200000E+03    4.09115000E-03 
   3.89300000E+02    2.10116100E-02 
   1.10000000E+02    8.16383500E-02 
   3.55700000E+01    2.35649920E-01 
   1.25400000E+01    4.37926150E-01 
   4.64400000E+00    3.50060070E-01 
S    7    1.000000
   1.14200000E+04    1.85000000E-06 
   1.71200000E+03    6.99000000E-06 
   1.10000000E+02   -7.36470000E-04 
   3.55700000E+01   -7.18168000E-03 
   1.25400000E+01   -4.67902200E-02 
   4.64400000E+00   -1.25123920E-01 
   5.11800000E-01    7.86270290E-01 
S    1    1.000000
   1.29300000E+00    1.00000000E+00 
S    1    1.000000
   1.78700000E-01    1.00000000E+00 
P    3    1.000000
   2.66300000E+01    1.46700000E-02 
   5.94800000E+00    9.17640000E-02 
   1.74200000E+00    2.98683000E-01 
P    1    1.000000
   5.55000000E-01    1.00000000E+00 
P    1    1.000000
   1.72500000E-01    1.00000000E+00 
D    1    1.000000
   1.65400000E+00    1.00000000E+00 
D    1    1.000000
   4.69000000E-01    1.00000000E+00 
F    1    1.000000
   1.09300000E+00    1.00000000E+00 

2    0
S    7    1.000000
   1.14200000E+04    5.28980000E-04 
   1.71200000E+03    4.09115000E-03 
   3.89300000E+02    2.10116100E-02 
   1.10000000E+02    8.16383500E-02 
   3.55700000E+01    2.35649920E-01 
   1.25400000E+01    4.37926150E-01 
   4.64400000E+00    3.50060070E-01 
S    7    1.000000
   1.14200000E+04    1.85000000E-06 
   1.71200000E+03    6.99000000E-06 
   1.10000000E+02   -7.36470000E-04 
   3.55700000E+01   -7.18168000E-03 
   1.25400000E+01   -4.67902200E-02 
   4.64400000E+00   -1.25123920E-01 
   5.11800000E-01    7.86270290E-01 
S    1    1.000000
   1.29300000E+00    1.00000000E+00 
S    1    1.000000
   1.78700000E-01    1.00000000E+00 
P    3    1.000000
   2.66300000E+01    1.46700000E-02 
   5.94800000E+00    9.17640000E-02 
   1.74200000E+00    2.98683000E-01 
P    1    1.000000
   5.55000000E-01    1.00000000E+00 
P    1    1.000000
   1.72500000E-01    1.00000000E+00 
D    1    1.000000
   1.65400000E+00    1.00000000E+00 
D    1    1.000000
   4.69000000E-01    1.00000000E+00 
F    1    1.000000
   1.09300000E+00    1.00000000E+00 

3    0
S    7    1.000000
   1.14200000E+04    5.28980000E-04 
   1.71200000E+03    4.09115000E-03 
   3.89300000E+02    2.10116100E-02 
   1.10000000E+02    8.16383500E-02 
   3.55700000E+01    2.35649920E-01 
   1.25400000E+01    4.37926150E-01 
   4.64400000E+00    3.50060070E-01 
S    7    1.000000
   1.14200000E+04    1.85000000E-06 
   1.71200000E+03    6.99000000E-06 
   1.10000000E+02   -7.36470000E-04 
   3.55700000E+01   -7.18168000E-03 
   1.25400000E+01   -4.67902200E-02 
   4.64400000E+00   -1.25123920E-01 
   5.11800000E-01    7.86270290E-01 
S    1    1.000000
   1.29300000E+00    1.00000000E+00 
S    1    1.000000
   1.78700000E-01    1.00000000E+00 
P    3    1.000000
   2.66300000E+01    1.46700000E-02 
   5.94800000E+00    9.17640000E-02 
   1.74200000E+00    2.98683000E-01 
P    1    1.000000
   5.55000000E-01    1.00000000E+00 
P    1    1.000000
   1.72500000E-01    1.00000000E+00 
D    1    1.000000
   1.65400000E+00    1.00000000E+00 
D    1    1.000000
   4.69000000E-01    1.00000000E+00 
F    1    1.000000
   1.09300000E+00    1.00000000E+00 

4    0
S    7    1.000000
   1.14200000E+04    5.28980000E-04 
   1.71200000E+03    4.09115000E-03 
   3.89300000E+02    2.10116100E-02 
   1.10000000E+02    8.16383500E-02 
   3.55700000E+01    2.35649920E-01 
   1.25400000E+01    4.37926150E-01 
   4.64400000E+00    3.50060070E-01 
S    7    1.000000
   1.14200000E+04    1.85000000E-06 
   1.71200000E+03    6.99000000E-06 
   1.10000000E+02   -7.36470000E-04 
   3.55700000E+01   -7.18168000E-03 
   1.25400000E+01   -4.67902200E-02 
   4.64400000E+00   -1.25123920E-01 
   5.11800000E-01    7.86270290E-01 
S    1    1.000000
   1.29300000E+00    1.00000000E+00 
S    1    1.000000
   1.78700000E-01    1.00000000E+00 
P    3    1.000000
   2.66300000E+01    1.46700000E-02 
   5.94800000E+00    9.17640000E-02 
   1.74200000E+00    2.98683000E-01 
P    1    1.000000
   5.55000000E-01    1.00000000E+00 
P    1    1.000000
   1.72500000E-01    1.00000000E+00 
D    1    1.000000
   1.65400000E+00    1.00000000E+00 
D    1    1.000000
   4.69000000E-01    1.00000000E+00 
F    1    1.000000
   1.09300000E+00    1.00000000E+00 

[MO]
Sym=X
Ene= -15.750876
Spin=Alpha
Occup=1
     1    4.926441234937e-01
     2   -3.421733057089e-03
     3    2.056523918152e-02
     4    7.804203843338e-04
     5    1.244960353097e-03
     6    1.448472186639e-07
     7    1.242919528501e-03
     8   -3.101871690716e-04
     9    2.838254928205e-06
    10   -2.616138564894e-04
    11    2.063968045646e-04
    12    6.208670139916e-07
    13    2.134535410063e-04
    14    7.235030902341e-05
    15    2.195141519540e-04
    16    3.540250247240e-06
    17    1.047267251686e-04
    18   -2.568908056284e-06
    19   -4.739858921366e-06
    20   -6.423001353545e-05
    21    5.338923920711e-06
    22   -3.964919565805e-05
    23   -2.881177623046e-06
    24    8.861453390888e-06
    25   -2.521514634772e-05
    26    1.292477461571e-06
    27   -2.873363961816e-05
    28   -4.981823504015e-07
    29   -1.221020064929e-05
    30    8.849961616026e-07
    31    4.659257121011e-01
    32   -3.160590269113e-03
    33    1.940603705692e-02
    34    8.348762601543e-04
    35   -1.338610175980e-03
    36   -7.779054501692e-04
    37    5.693762049303e-04
    38    2.181756864642e-04
    39    1.453741905460e-04
    40   -8.355870215194e-05
    41   -2.746070958848e-04
    42   -1.546861652279e-04
    43    1.171010923305e-04
    44   -7.651713437820e-05
    45   -1.235387578141e-04
    46   -6.850415103048e-05
    47    9.375724347808e-05
    48    1.607562299853e-04
    49    1.103802436079e-05
    50    5.628518571141e-06
    51    1.112624508881e-05
    52   -2.937305011154e-08
    53   -2.063507273280e-05
    54    1.419011140575e-05
    55   -8.945848479462e-06
    56   -2.301507448429e-06
    57   -9.010089389097e-06
    58   -1.909739440654e-05
    59   -5.525208205653e-06
    60    2.020914709933e-05
    61    5.115737126462e-01
    62   -3.607397901729e-03
    63    2.138885085225e-02
    64    7.417704888619e-04
    65    6.219081433896e-04
    66   -8.666302764620e-04
    67   -1.497740207194e-03
    68   -1.864995699239e-04
    69    2.242242071996e-04
    70    4.043316466088e-04
    71    8.794590658604e-05
    72   -1.290774992364e-04
    73   -2.192056457275e-04
    74    1.305160753804e-04
    75   -1.183761308408e-04
    76    1.745563453282e-04
    77   -2.614405254937e-05
    78   -7.144080434750e-05
    79   -5.503743431535e-05
    80    6.222452147871e-05
    81   -6.931712123188e-05
    82    4.758003416491e-06
    83    2.953161096384e-05
    84    7.085867491938e-06
    85   -2.424560930268e-05
    86    3.139431746461e-05
    87   -5.475610321845e-06
    88   -2.300681025319e-05
    89    5.308395076781e-06
    90    2.938438122479e-06
    91    4.857681008387e-01
    92   -3.353934043376e-03
    93    2.026841311564e-02
    94    7.953746191828e-04
    95   -4.097108712334e-04
    96    1.633398932367e-03
    97   -4.069041892681e-04
    98    6.129992040534e-05
    99   -3.511963999448e-04
   100    1.093168578368e-04
   101   -7.852017125470e-05
   102    2.894985188959e-04
   103   -6.757244103627e-05
   104   -1.049396173195e-04
   105    2.465564055463e-05
   106   -9.131819443334e-05
   107   -1.814150556147e-04
   108   -1.031865590775e-04
   109    2.502636872926e-05
   110   -4.530006603002e-06
   111    3.869706826141e-05
   112    4.677366810422e-05
   113    6.901229936973e-06
   114   -1.504669755027e-05
   115   -4.232742836791e-06
   116    1.553945446703e-05
   117   -2.033668810623e-05
   118   -8.195614426717e-06
   119   -1.281091660204e-05
   120    2.286362878395e-05
Sym=X
Ene= -15.749967
Spin=Alpha
Occup=1
     1   -2.989302859605e-01
     2    2.983799480246e-03
     3   -1.287469216431e-02
     4    6.904262458113e-04
     5   -8.116019639935e-04
     6   -4.141133855212e-06
     7   -8.129127478240e-04
     8    5.292655657297e-04
     9    6.549034246557e-04
    10    1.551404145040e-03
    11    1.832477865409e-04
    12    1.850775819633e-04
    13    4.709642732130e-04
    14    1.322734599436e-04
    15   -7.538984836665e-05
    16    1.309712408837e-04
    17   -6.382528064454e-05
    18    5.677568200212e-05
    19    6.272403729189e-04
    20    3.792100153796e-04
    21    4.401753904691e-04
    22    9.072472808473e-05
    23    2.002142923525e-04
    24    1.513731706579e-04
    25    1.286207061230e-04
    26    1.349044036605e-04
    27    1.021802184519e-05
    28    1.118496649847e-04
    29    8.959633499169e-06
    30    3.568182206909e-05
    31   -1.471687278426e-01
    32    1.444899762216e-03
    33   -6.328322092769e-03
    34    3.063716289901e-04
    35    4.580408233632e-04
    36    2.588040896060e-04
    37   -2.011679259742e-04
    38   -6.903186056326e-04
    39    4.002734381722e-04
    40    9.323245116077e-04
    41   -2.064709408027e-04
    42    1.082025745041e-04
    43    2.736684018399e-04
    44    1.107101457419e-04
    45   -1.318802193160e-04
    46    5.456306434446e-05
    47    6.406916618060e-05
    48   -1.036212795653e-04
    49    2.672831762642e-04
    50   -6.311723973289e-04
    51    7.401596110401e-05
    52    3.567923788916e-04
    53   -1.305919177608e-04
    54   -3.627423335153e-05
    55   -1.601024051228e-04
    56   -3.459809041393e-05
    57    1.990332708378e-04
    58   -2.507884616649e-07
    59   -9.957478672761e-05
    60    6.301393548362e-06
    61    8.190076950246e-01
    62   -8.262586053731e-03
    63    3.535266578656e-02
    64   -2.019081289803e-03
    65    1.078621284146e-03
    66   -1.500604995866e-03
    67   -2.585535122046e-03
    68   -1.324352234626e-03
    69    2.134153155923e-03
    70    3.320125981729e-03
    71   -4.336101310874e-04
    72    6.850474015525e-04
    73    1.073455978350e-03
    74    9.659809676261e-05
    75   -1.000042415836e-04
    76    9.407680914344e-05
    77    1.191850459781e-05
    78   -3.092665776073e-05
    79   -6.758657636044e-04
    80    6.355246471604e-04
    81   -1.043232904850e-03
    82    2.287456531341e-04
    83    4.616041443492e-04
    84    6.491933042623e-06
    85   -4.543397582264e-05
    86    1.307848755013e-04
    87   -2.918329028489e-05
    88   -9.669914042306e-05
    89    8.183014912921e-05
    90   -3.618736114171e-05
    91   -4.182463078987e-01
    92    4.156852670873e-03
    93   -1.802273173562e-02
    94    9.430318439650e-04
    95    3.833819038021e-04
    96   -1.523744742548e-03
    97    3.709211033228e-04
    98   -6.265718016844e-04
    99    2.106351599639e-03
   100    3.921183848304e-04
   101   -1.933408874581e-04
   102    6.571524275572e-04
   103    1.023085168237e-04
   104    1.089274217967e-05
   105   -8.093877021688e-05
   106    1.932768749676e-04
   107    1.514009741202e-05
   108   -2.290638883858e-05
   109   -4.064529156696e-04
   110   -1.742983935605e-04
   111    2.754146143927e-04
   112   -6.903824827580e-04
   113   -4.766157673761e-04
   114   -8.789793893421e-05
   115    3.373927514626e-05
   116   -9.893835626550e-05
   117   -8.553533517262e-05
   118   -1.057129453778e-04
   119    1.498364403429e-04
   120   -9.842630608834e-05
Sym=X
Ene= -15.749950
Spin=Alpha
Occup=1
     1    7.822839095903e-01
     2   -7.851901495485e-03
     3    3.374864028198e-02
     4   -1.873552977762e-03
     5    2.149943445087e-03
     6   -2.936473321158e-06
     7    2.133697070627e-03
     8   -2.887280213347e-03
     9    3.519778356454e-04
    10   -2.663912691086e-03
    11   -9.250001382235e-04
    12    1.004389926350e-04
    13   -8.571251526276e-04
    14    7.818970849041e-05
    15    1.256087839376e-04
    16    5.732691687116e-05
    17    7.284787488054e-05
    18    4.280989422480e-05
    19   -2.145288474376e-04
    20   -1.257359108419e-03
    21    1.923630582577e-04
    22   -6.036027362749e-04
    23    1.534255760573e-04
    24    8.444004989384e-05
    25   -9.527330889190e-05
    26    1.475051495135e-05
    27   -1.180819412131e-04
    28    1.040858381381e-04
    29   -3.251916939586e-05
    30   -6.300145277166e-06
    31   -2.310902521515e-01
    32    2.280324784575e-03
    33   -9.958642639445e-03
    34    5.004635204694e-04
    35    7.326470211711e-04
    36    4.161140178844e-04
    37   -2.986039315102e-04
    38   -1.459000655036e-03
    39   -4.509481997561e-05
    40   -2.697245607070e-04
    41   -4.434222742397e-04
    42   -2.722575206077e-05
    43   -7.136088562537e-05
    44   -9.747760892357e-06
    45    1.231271141479e-04
    46    9.684935860067e-05
    47    1.421797903127e-04
    48   -3.217954578133e-05
    49   -2.375031539293e-04
    50    1.506952776212e-04
    51    1.807815883669e-04
    52    7.154564818305e-04
    53    2.672370097542e-04
    54    8.332737125952e-05
    55    9.343253243485e-05
    56    2.182256090933e-05
    57    7.515336345990e-07
    58   -8.370378552337e-05
    59   -1.700544592045e-04
    60   -1.592334272247e-04
    61   -3.118713091251e-02
    62    3.168297378764e-04
    63   -1.337325092735e-03
    64    7.987358106080e-05
    65   -3.455693473175e-05
    66    5.191955719149e-05
    67    9.826939627603e-05
    68   -7.530751533327e-04
    69    2.933015012372e-04
    70   -6.745087012476e-04
    71   -2.100945839460e-04
    72    8.282851576633e-05
    73   -1.950390473815e-04
    74    1.540587564248e-04
    75    1.344365947683e-04
    76    1.418924846898e-05
    77    3.849179726029e-05
    78    8.164996564839e-05
    79    5.608525104284e-04
    80    4.151187180606e-04
    81    8.802604777930e-05
    82    1.147491906530e-04
    83    2.654640917588e-04
    84   -1.858353858465e-04
    85   -9.218450287896e-05
    86   -1.324308526920e-04
    87    4.051807297398e-06
    88   -1.034740022311e-04
    89    6.578094049117e-05
    90   -1.948959952145e-05
    91   -5.388794774507e-01
    92    5.387100903328e-03
    93   -2.323620719591e-02
    94    1.261592432647e-03
    95    4.991885762740e-04
    96   -1.961951273010e-03
    97    4.930201620012e-04
    98   -1.265740162247e-03
    99    2.259022818176e-03
   100   -1.041628686111e-03
   101   -3.820978141899e-04
   102    7.277264370394e-04
   103   -3.187213667209e-04
   104    8.496669521947e-05
   105    9.328554866217e-05
   106   -7.597636098101e-06
   107    1.509259130182e-04
   108   -5.350999684730e-05
   109   -2.689285861417e-04
   110    4.415737725573e-04
   111   -5.450140510725e-04
   112   -4.410492994537e-04
   113   -7.080375829973e-04
   114    1.000655099051e-04
   115   -3.394095510392e-05
   116    1.660671588627e-05
   117    1.722770610127e-05
   118    1.672775465664e-04
   119    1.452900115961e-04
   120    3.405198285237e-05
Sym=X
Ene= -15.749921
Spin=Alpha
Occup=1
     1   -1.135349321371e-01
     2    1.149175421207e-03
     3   -4.914638864195e-03
     4    2.873260412886e-04
     5   -3.233307612778e-04
     6   -8.774402836275e-06
     7   -3.084947991437e-04
     8    9.213117465637e-04
     9    7.124658538547e-04
    10   -8.963272637913e-05
    11    2.855772648905e-04
    12    2.066980336454e-04
    13   -8.695059723310e-06
    14   -1.051378630725e-04
    15   -4.831616947683e-05
    16    6.166017122147e-05
    17    1.000444021716e-04
    18    1.375723329874e-04
    19   -3.049635388406e-04
    20    9.416164602543e-05
    21    2.273912275922e-04
    22    4.763723101364e-04
    23    4.787006877007e-04
    24   -5.368133974851e-05
    25   -1.205262664871e-04
    26   -3.078374995051e-06
    27    7.997730706142e-05
    28    1.303699767073e-04
    29    1.277194385896e-04
    30    1.497838017739e-04
    31    8.153422759322e-01
    32   -8.127408257933e-03
    33    3.514098346823e-02
    34   -1.876584950049e-03
    35   -2.552790883879e-03
    36   -1.484413207695e-03
    37    1.082010200858e-03
    38    3.085488240027e-03
    39    2.151522337993e-03
    40   -1.451997421015e-03
    41    9.858672981324e-04
    42    6.729130546566e-04
    43   -4.572754472139e-04
    44   -4.338091594660e-05
    45   -7.883197400911e-05
    46   -1.654651274844e-05
    47    1.217144775031e-04
    48    9.901901485346e-05
    49    5.009912502887e-04
    50    7.098385596249e-04
    51    5.095942829697e-04
    52   -3.450239926401e-04
    53   -1.000376184435e-03
    54    1.160629632702e-04
    55   -9.224016884237e-06
    56   -6.528263041739e-05
    57    6.995774354491e-06
    58   -1.186559846565e-04
    59   -4.280877123754e-05
    60    8.942354340955e-05
    61   -1.531222472401e-01
    62    1.568280317653e-03
    63   -6.622998715657e-03
    64    4.120616154511e-04
    65   -2.078228465862e-04
    66    2.741110479161e-04
    67    4.891001196897e-04
    68    8.265399666274e-04
    69    4.306877019481e-04
    70   -9.010066717371e-04
    71    2.485833125005e-04
    72    1.061283522986e-04
    73   -2.905794880448e-04
    74    3.061253509554e-05
    75   -1.121347355798e-04
    76   -9.908454194720e-05
    77    1.388129015780e-04
    78    7.004615225050e-05
    79    3.069754118294e-04
    80   -5.704012517428e-04
    81   -8.988107123400e-05
    82    4.429556236367e-04
    83    1.229641385299e-04
    84   -1.773779340451e-05
    85    1.598257760858e-04
    86   -1.738371676434e-05
    87   -1.916073729004e-04
    88   -2.251303831334e-05
    89    1.093260196414e-04
    90   -3.577729246735e-05
    91   -5.055928991683e-01
    92    5.102680967146e-03
    93   -2.182367607216e-02
    94    1.252740608011e-03
    95    4.564368796316e-04
    96   -1.849225247478e-03
    97    4.625300369660e-04
    98    1.557007978086e-04
    99    2.555655029324e-03
   100   -8.599642515978e-04
   101    1.840133238541e-05
   102    8.244990026416e-04
   103   -2.691809843441e-04
   104    2.009546406560e-05
   105   -6.027728590011e-05
   106   -3.436022337208e-05
   107    4.009031162672e-05
   108    1.836688493096e-04
   109   -4.531369357950e-04
   110   -8.054374752719e-05
   111   -6.020950876252e-04
   112   -7.828306701892e-04
   113    1.448284080741e-04
   114    1.215472984563e-04
   115   -2.247554080199e-05
   116   -6.629538590435e-05
   117    1.243745257194e-04
   118   -7.040846849006e-05
   119   -9.950969670246e-05
   120   -1.109511969299e-04
Sym=X
Ene= -1.653473
Spin=Alpha
Occup=1
     1   -9.406728038062e-02
     2    2.197494528139e-01
     3    5.380607511408e-02
     4    6.112849270721e-02
     5    4.513930604327e-02
     6    7.581179476106e-06
     7    4.547897788809e-02
     8    6.276419002842e-02
     9    6.654129743707e-06
    10    6.300177016254e-02
    11    1.087696274297e-02
    12    6.881477989893e-07
    13    1.085496081264e-02
    14    2.049616122841e-03
    15    6.886174902840e-03
    16    4.581559411058e-05
    17    3.406877773475e-03
    18   -4.243718500016e-05
    19    4.120797079356e-03
    20    1.431331590502e-02
    21    6.387205953567e-05
    22    7.162287265413e-03
    23   -6.142010015222e-05
    24   -4.812358091355e-04
    25    1.858725172192e-03
    26    7.672321863149e-04
    27    1.930728131923e-03
    28   -8.946350230004e-04
    29    7.810436297651e-04
    30    8.692267963554e-04
    31   -9.343039453800e-02
    32    2.182949116281e-01
    33    5.348302345153e-02
    34    6.070312446767e-02
    35   -5.165430847499e-02
    36   -2.994204709003e-02
    37    2.209682153072e-02
    38   -7.170922739158e-02
    39   -4.155758657667e-02
    40    3.058605854215e-02
    41   -1.237757776128e-02
    42   -7.164628703770e-03
    43    5.252625975450e-03
    44   -2.554733246250e-03
    45   -3.891241621838e-03
    46   -2.232583838376e-03
    47    2.980799349082e-03
    48    5.216191740498e-03
    49   -5.313166921862e-03
    50   -7.989871813214e-03
    51   -4.588659838649e-03
    52    6.211972235819e-03
    53    1.081976497577e-02
    54   -1.578799433807e-03
    55   -1.436428531079e-04
    56    1.238205122771e-03
    57    2.099645005300e-04
    58    1.380017274422e-03
    59   -4.374078289225e-04
    60   -1.964220955365e-03
    61   -9.470268355232e-02
    62    2.212062137452e-01
    63    5.412696509199e-02
    64    6.157125327885e-02
    65    2.167238779384e-02
    66   -3.046664672327e-02
    67   -5.253359562591e-02
    68    3.016866835209e-02
    69   -4.228840617792e-02
    70   -7.290106127221e-02
    71    5.247713219030e-03
    72   -7.327169200119e-03
    73   -1.261711555112e-02
    74    3.957000033289e-03
    75   -3.755224833088e-03
    76    5.339132226737e-03
    77   -7.301735951728e-04
    78   -2.201119816935e-03
    79    8.213819680586e-03
    80   -7.912647179993e-03
    81    1.112684148945e-02
    82   -1.525674550546e-03
    83   -4.631055605922e-03
    84   -2.718569015667e-04
    85    1.050926153254e-03
    86   -2.318810029332e-03
    87   -3.742309973945e-04
    88    1.358520141741e-03
    89   -1.122165498528e-03
    90    6.948628032846e-04
    91   -9.405821231451e-02
    92    2.197318440640e-01
    93    5.380101520077e-02
    94    6.113278695625e-02
    95   -1.530586165676e-02
    96    6.040186764668e-02
    97   -1.489090476665e-02
    98   -2.121104145027e-02
    99    8.383731234204e-02
   100   -2.070331691955e-02
   101   -3.663375685144e-03
   102    1.449030587233e-02
   103   -3.581646420012e-03
   104   -3.355306605945e-03
   105    7.641764281149e-04
   106   -3.016858901192e-03
   107   -5.711600499840e-03
   108   -3.101250868175e-03
   109   -6.953657914082e-03
   110    1.589544208540e-03
   111   -6.282908720987e-03
   112   -1.188887715761e-02
   113   -6.438626657725e-03
   114    1.729553006852e-03
   115   -5.708648180578e-04
   116   -1.193923103962e-03
   117    5.528415289847e-04
   118    9.715224124072e-06
   119    1.726641983197e-03
   120   -1.460320489376e-03
Sym=X
Ene= -1.044706
Spin=Alpha
Occup=1
     1    1.138395177075e-01
     2   -2.962255470529e-01
     3   -7.782626020965e-02
     4   -2.147883107335e-01
     5    5.270438617917e-02
     6   -1.424920242036e-02
     7   -4.595438954078e-02
     8    5.869562635882e-02
     9   -1.929176926627e-02
    10   -7.530836270078e-02
    11    6.345464654852e-03
    12   -4.888817374047e-03
    13   -2.823225463252e-02
    14   -7.976300396626e-03
    15    6.121250947642e-04
    16   -2.483884296658e-03
    17    4.613285489266e-03
    18   -1.872417393884e-04
    19   -1.820515049741e-02
    20   -4.634828576621e-03
    21   -5.606192377926e-03
    22    6.407210702142e-03
    23    1.435799158394e-04
    24   -2.579159423597e-03
    25   -2.471194369796e-03
    26   -1.489598734211e-03
    27    8.951837599662e-04
    28   -1.171506033290e-04
    29    1.133456228248e-03
    30   -2.482519829431e-04
    31   -1.218524166377e-01
    32    3.170786668777e-01
    33    8.331237013833e-02
    34    2.300690956294e-01
    35    4.230111078116e-02
    36   -4.525232925411e-02
    37    2.202423937611e-02
    38    4.159458835158e-02
    39   -7.080475008803e-02
    40    3.673795692244e-02
    41   -1.513482482459e-04
    42   -2.455205208876e-02
    43    1.417543419272e-02
    44    9.474798397709e-04
    45   -9.566614221408e-04
    46   -3.715393791302e-03
    47   -7.687310704049e-03
    48    1.625755232193e-03
    49   -1.003494316961e-03
    50   -5.774152950435e-03
    51   -9.935880597247e-03
    52   -1.329084424919e-02
    53    7.969828118773e-03
    54   -1.203223088110e-03
    55   -1.136875220007e-03
    56    5.225552566672e-04
    57   -1.389661318632e-03
    58    1.602222313945e-03
    59    2.568745790657e-03
    60    7.985538397869e-04
    61    6.712059416680e-02
    62   -1.746884329617e-01
    63   -4.587400576172e-02
    64   -1.267130220635e-01
    65    8.553541064839e-02
    66    3.740985770831e-03
    67    2.987014107624e-02
    68    1.125579333489e-01
    69    1.019029754885e-02
    70    4.932358923637e-02
    71    2.645120878111e-02
    72    6.105518666606e-03
    73    1.864717287380e-02
    74   -6.121444275286e-03
    75   -8.934703892850e-03
    76   -2.558749077106e-03
    77    2.928899145835e-03
    78   -3.862865679964e-03
    79   -1.477368197862e-02
    80   -1.706429540169e-02
    81   -8.094703185780e-03
    82    5.923793773148e-03
    83   -6.244974628799e-03
    84    2.797662074692e-03
    85    2.338361879717e-03
    86    2.316661059588e-03
    87   -1.805491078922e-03
    88    1.867519505307e-03
    89    2.494828165431e-05
    90   -9.917119706017e-04
    91   -6.006702428720e-02
    92    1.563705942985e-01
    93    4.104732011589e-02
    94    1.136824340931e-01
    95    8.933188616911e-02
    96    1.730953221248e-02
    97   -8.667660033956e-03
    98    1.191812970673e-01
    99    3.277117124554e-02
   100   -1.408550016864e-02
   101    2.910004784790e-02
   102    1.474032765568e-02
   103   -5.189287469829e-03
   104   -5.626737046144e-04
   105   -3.756876000820e-03
   106   -2.310787008841e-03
   107   -4.165567741380e-03
   108    1.059849815892e-02
   109   -3.321995471456e-03
   110   -8.080630691057e-03
   111   -6.551745435548e-03
   112   -1.090296730886e-02
   113    2.058657670397e-02
   114    8.909313819186e-04
   115   -7.708534367926e-04
   116   -4.494825308780e-04
   117    1.492998820242e-03
   118   -2.228666189368e-03
   119   -3.497783489740e-03
   120   -2.435981425869e-03
Sym=X
Ene= -1.041331
Spin=Alpha
Occup=1
     1   -3.220943640940e-02
     2    8.389083608119e-02
     3    2.204097198539e-02
     4    6.127133513904e-02
     5   -1.043437875273e-03
     6   -9.672764215639e-02
     7   -1.429713589320e-03
     8    2.236887158510e-03
     9   -1.315942973188e-01
    10    1.835627646526e-03
    11    3.005034796872e-03
    12   -3.414143599620e-02
    13    3.085913165253e-03
    14   -1.034896166130e-03
    15    9.300473637345e-04
    16   -8.947333582609e-03
    17   -1.702711485515e-03
    18   -9.001567942315e-03
    19   -2.086124562733e-03
    20    4.177584944297e-03
    21   -1.861283406090e-02
    22   -3.497785042165e-03
    23   -1.873193804633e-02
    24   -9.278544278890e-04
    25    4.028226787585e-04
    26   -1.849973158658e-03
    27   -1.859823586302e-04
    28   -4.327663927946e-03
    29   -8.950253048184e-04
    30   -2.448118630519e-03
    31    8.673317041959e-02
    32   -2.258290949667e-01
    33   -5.937413702607e-02
    34   -1.647354790698e-01
    35    2.459207582475e-02
    36   -7.406728870835e-02
    37   -2.991534012613e-02
    38    4.489566077897e-02
    39   -9.413494046596e-02
    40   -4.551988195628e-02
    41    1.935985282812e-02
    42   -1.990270673470e-02
    43   -1.511759492748e-02
    44   -3.579014403184e-03
    45    4.710837603245e-03
    46   -2.769390762603e-03
    47   -7.212720414220e-03
    48    5.399089511076e-03
    49   -6.206502563575e-03
    50    1.246536594777e-02
    51   -4.922364972527e-03
    52   -1.702242078952e-02
    53    7.279283494250e-03
    54    2.116334049608e-04
    55    1.855066469469e-03
    56    5.359391739449e-04
    57   -2.613599764094e-03
    58    6.660001194714e-04
    59    3.413231083945e-03
    60    1.295324914986e-04
    61    8.628194409946e-02
    62   -2.247849876761e-01
    63   -5.902078791607e-02
    64   -1.643274044811e-01
    65   -2.986534564817e-02
    66   -7.474086995220e-02
    67    2.502380965277e-02
    68   -4.545296522112e-02
    69   -9.500809927784e-02
    70    4.555341866562e-02
    71   -1.500799947060e-02
    72   -2.016572227719e-02
    73    1.963476419698e-02
    74   -4.534948538565e-03
    75    4.680800859180e-03
    76    5.421101966305e-03
    77   -6.792952583542e-03
    78   -2.775703355186e-03
    79   -1.176719155942e-02
    80    1.247400973886e-02
    81    7.354726369729e-03
    82   -1.402572162628e-02
    83   -4.947567896620e-03
    84    1.601884209475e-03
    85   -2.137577434050e-03
    86    2.437610852957e-05
    87    3.606457390003e-03
    88    6.589098921172e-04
    89   -1.458905257233e-03
    90    5.502219074327e-04
    91   -1.408066534377e-01
    92    3.667273868938e-01
    93    9.635438464141e-02
    94    2.678014789919e-01
    95   -3.227014841486e-02
    96   -2.403809057493e-02
    97   -3.147902087916e-02
    98   -4.934137143029e-02
    99   -1.104535757301e-02
   100   -4.821729443007e-02
   101   -1.649279388026e-02
   102    1.178831376511e-02
   103   -1.614360756320e-02
   104    2.047936950386e-03
   105    3.082937586458e-03
   106   -3.022047159776e-03
   107    3.658499361240e-03
   108   -3.117633710779e-03
   109    6.297040828844e-04
   110    7.768646504737e-03
   111   -9.470241353834e-03
   112    1.332332375906e-03
   113   -9.712017312778e-03
   114    1.463792378283e-03
   115   -7.078878698554e-04
   116    1.000237483760e-03
   117    1.500937667993e-04
   118    1.437813377231e-03
   119    1.259561627894e-03
   120    1.361988497352e-03
Sym=X
Ene= -1.038004
Spin=Alpha
Occup=1
     1    1.134758790646e-01
     2   -2.958049592124e-01
     3   -7.772487098771e-02
     4   -2.175281795367e-01
     5   -4.397096810863e-02
     6   -1.316941529617e-02
     7    5.464668069328e-02
     8   -7.324806450957e-02
     9   -1.800532746274e-02
    10    6.113672241509e-02
    11   -2.805017108754e-02
    12   -4.789408773158e-03
    13    7.007451349895e-03
    14    7.936015858068e-03
    15    8.610991788322e-04
    16   -1.230674385234e-04
    17   -4.434788662422e-03
    18   -2.296473349139e-03
    19    1.485593383007e-02
    20   -4.226409914332e-03
    21    2.921690069867e-04
    22   -1.250211777612e-02
    23   -5.413937476044e-03