Process 0 of 1 is on He - thread support 0
initial socket setup ...start
initial socket setup ...done 
now start server 0 ... 
He 127.0.1
Q-Chem Developer Version! Running on 127.0.1.*
                  Welcome to Q-Chem
     A Quantum Leap Into The Future Of Chemistry


 Q-Chem 4.4, Q-Chem, Inc., Pleasanton, CA (2016)

 Y. Shao,  Z. Gan,  E. Epifanovsky,  A. T. B. Gilbert,  M. Wormit,  
 J. Kussmann,  A. W. Lange,  A. Behn,  J. Deng,  X. Feng,  D. Ghosh,  
 M. Goldey,  P. R. Horn,  L. D. Jacobson,  I. Kaliman,  F.Rob,  
 R. Z. Khaliullin,  T. Kus,  A. Landau,  J. Liu,  E. I. Proynov,  Y. M. Rhee,  
 R. M. Richard,  M. A. Rohrdanz,  R. P. Steele,  E. J. Sundstrom,  
 H. L. Woodcock III,  P. M. Zimmerman,  D. Zuev,  B. Albrecht,  E. Alguire,  
 B. Austin,  S. A. Baeppler,  G. J. O. Beran,  Y. A. Bernard,  E. Berquist,  
 K. Brandhorst,  K. B. Bravaya,  S. T. Brown,  D. Casanova,  C.-M. Chang,  
 Y. Chen,  S. H. Chien,  K. D. Closser,  M. P. Coons,  D. L. Crittenden,  
 S. Dasgupta,  M. Diedenhofen,  R. A. DiStasio Jr.,  H. Do,  A. D. Dutoi,  
 R. G. Edgar,  P.-T. Fang,  S. Fatehi,  Q. Feng,  L. Fusti-Molnar,  
 A. Ghysels,  A. Golubeva-Zadorozhnaya,  J. Gomes,  A. Gunina,  
 M. W. D. Hanson-Heine,  P. H. P. Harbach,  A. W. Hauser,  J. E. Herr,  
 E. G. Hohenstein,  Z. C. Holden,  K. Hui,  T.-C. Jagau,  H. Ji,  B. Kaduk,  
 K. Khistyaev,  Jaehoon Kim,  Jihan Kim,  R. A. King,  P. Klunzinger,  
 K. Koh,  D. Kosenkov,  T. Kowalczyk,  C. M. Krauter,  A. Kunitsa,  
 K. U. Lao,  A. Laurent,  K. V. Lawler,  J. Lee,  D. Lefrancois,  S. Lehtola,  
 S. V. Levchenko,  C. Y. Lin,  Y.-S. Lin,  F. Liu,  E. Livshits,  
 R. C. Lochan,  A. Luenser,  P. Manohar,  S. F. Manzer,  S.-P. Mao,  Y. Mao,  
 N. Mardirossian,  A. V. Marenich,  L. A. Martinez-Martinez,  S. A. Maurer,  
 N. J. Mayhall,  J.-M. Mewes,  A. F. Morrison,  K. Nanda,  T. S. Nguyen-Beck,  
 C. M. Oana,  R. Olivares-Amaya,  D. P. O'Neill,  J. A. Parkhill,  
 T. M. Perrine,  R. Peverati,  P. A. Pieniazek,  F. Plasser,  A. Prociuk,  
 D. R. Rehn,  E. Rosta,  N. J. Russ,  N. Sergueev,  S. M. Sharada,  
 S. Sharma,  D. W. Small,  A. Sodt,  T. Stauch,  T. Stein,  D. Stuck,  
 Y.-C. Su,  A. J. W. Thom,  T. Tsuchimochi,  L. Vogt,  O. Vydrov,  T. Wang,  
 M. A. Watson,  J. Wenzel,  A. White,  C. F. Williams,  V. Vanovschi,  
 K. Yao,  S. Yeganeh,  S. R. Yost,  Z.-Q. You,  I. Y. Zhang,  X. Zhang,  
 Y. Zhao,  B. R. Brooks,  G. K. L. Chan,  D. M. Chipman,  C. J. Cramer,  
 W. A. Goddard III,  M. S. Gordon,  W. J. Hehre,  A. Klamt,  
 H. F. Schaefer III,  M. W. Schmidt,  C. D. Sherrill,  D. G. Truhlar,  
 A. Warshel,  X. Xu,  A. Aspuru-Guzik,  R. Baer,  A. T. Bell,  N. A. Besley,  
 J.-D. Chai,  A. Dreuw,  B. D. Dunietz,  T. R. Furlani,  S. R. Gwaltney,  
 C.-P. Hsu,  Y. Jung,  J. Kong,  D. S. Lambrecht,  W. Liang,  C. Ochsenfeld,  
 V. A. Rassolov,  L. V. Slipchenko,  J. E. Subotnik,  T. Van Voorhis,  
 J. M. Herbert,  A. I. Krylov,  P. M. W. Gill,  M. Head-Gordon

 Contributors to earlier versions of Q-Chem not listed above: 
 R. D. Adamson,  J. Baker,  E. F. C. Byrd,  A. K. Chakraborty,  C.-L. Cheng,  
 H. Dachsel,  R. J. Doerksen,  G. Hawkins,  A. Heyden,  S. Hirata,  
 G. Kedziora,  F. J. Keil,  C. Kelley,  P. P. Korambath,  W. Kurlancheek,  
 A. M. Lee,  M. S. Lee,  D. Liotard,  I. Lotan,  P. E. Maslen,  N. Nair,  
 D. Neuhauser,  R. Olson,  B. Peters,  J. Ritchie,  N. E. Schultz,  
 N. Shenvi,  A. C. Simmonett,  K. S. Thanthiriwatte,  Q. Wu,  W. Zhang

 Please cite Q-Chem as follows:
 Y. Shao et al., Mol. Phys. 113, 184-215 (2015)
 DOI: 10.1080/00268976.2014.952696

 Q-Chem 4.4.1 for Intel X86 EM64T Linux

 Parts of Q-Chem use Armadillo 5.200.1 (Boston Tea Smuggler).
 http://arma.sourceforge.net/

 Q-Chem begins on Wed May 17 06:12:06 2017  


Host: 0

     Scratch files written to /home/vladimir/scratch/qchem19564//
 Parallel job on  1  processors

Checking the input file for inconsistencies... 	...done.

--------------------------------------------------------------
User input:
--------------------------------------------------------------
$comment0
$end

$rem
SYMMETRY              false
SYM_IGNORE            true
BASIS                 cc-pVTZ
METHOD                HF
SCF_CONVERGENCE       8
MOLDEN_FORMAT         true
PRINT_ORBITALS        1000
$end

$molecule
   0 1
   N       0.5200      0.5300      0.5100
   N      -0.5200     -0.5200      0.5200
   N      -0.5200      0.5200     -0.5200
   N       0.5200     -0.5200     -0.5200
$end
--------------------------------------------------------------
 ----------------------------------------------------------------
             Standard Nuclear Orientation (Angstroms)
    I     Atom           X                Y                Z
 ----------------------------------------------------------------
    1      N       0.5200000000     0.5300000000     0.5100000000
    2      N      -0.5200000000    -0.5200000000     0.5200000000
    3      N      -0.5200000000     0.5200000000    -0.5200000000
    4      N       0.5200000000    -0.5200000000    -0.5200000000
 ----------------------------------------------------------------
 Nuclear Repulsion Energy =   105.7779404621 hartrees
 There are       14 alpha and       14 beta electrons
 Requested basis set is cc-pVTZ
 There are 40 shells and 120 basis functions

 Total QAlloc Memory Limit   2000 MB
 Mega-Array Size        61 MB
 MEM_STATIC part        62 MB

                       Distance Matrix (Angstroms)
             N (  1)   N (  2)   N (  3)
   N (  2)  1.477904
   N (  3)  1.463762  1.470782
   N (  4)  1.470850  1.470782  1.470782

 A cutoff of  1.0D-11 yielded    820 shell pairs
 There are      7460 function pairs (     10206 Cartesian)

 -------------------------------------------------------
 OpenMP Integral Computing Module                       
 Release: version 1.0, May 2013, Q-Chem Inc. Pittsburgh 
 -------------------------------------------------------
 Integral Job Info:
 Integral job number is                      11
 Integral operator is                         1
 short-range coefficients                     0
 long-range coefficients              100000000
 Omega coefficients                           0
 if combine SR and LR in K                    0
 Integral screening is                        0
 Integral computing path is                   2
 max size of driver memory is            800000
 size of driver memory is                776718
 size of scratch memory is              4556032
 max col of scratch BK array              10000
 max len of scratch array in speh3          662
 max len of scratch index in speh4           32
 max int batch size is                      520
 min int batch size is                       52
 fixed nKL is                                52
 max L of basis functions is                  3
 order of int derivative is                   0
 number of shells is                         40
 number of basis is                         140
 number of cartesian basis is               140
 number of contracted shell pairs           820
 number of primitive shell pairs           3540
 maxK2 (contraction) of shell pair           49
 max number of K2 of shell pair               1
 max number of CS2 of shell pair             64
 max number of PS2 of shell pair            588
 mem total for path MDJ                   57020
 -------------------------------------------------------
 Smallest overlap matrix eigenvalue = 2.60E-03

 Scale SEOQF with 1.000000e+00/1.000000e+00/1.000000e+00

 Standard Electronic Orientation quadrupole field applied
 Nucleus-field energy     =     0.0000000001 hartrees
 Guess from superposition of atomic densities
 Warning:  Energy on first SCF cycle will be non-variational
 A restricted Hartree-Fock SCF calculation will be
 performed using Pulay DIIS extrapolation
 SCF converges when DIIS error is below 1.0E-08
 using 12 threads for integral computing 
 ---------------------------------------
  Cycle       Energy         DIIS Error
 ---------------------------------------
    1    -218.5015987058      5.32E-02
    2    -217.5026281340      7.95E-03
    3    -217.5771580237      3.32E-03
    4    -217.5914879302      4.04E-04
    5    -217.5922766150      1.16E-04
    6    -217.5923577927      2.80E-05
    7    -217.5923599058      1.71E-05
    8    -217.5923603914      1.51E-06
    9    -217.5923603979      2.49E-07
   10    -217.5923603982      1.34E-07
   11    -217.5923603985      4.42E-08
   12    -217.5923603988      1.30E-08
   13    -217.5923603988      1.80E-09 Convergence criterion met
 ---------------------------------------
 SCF time:  CPU 24.66 s  wall 2.50 s
 SCF   energy in the final basis set = -217.5923603988
 Total energy in the final basis set = -217.5923603988

 --------------------------------------------------------------

                    Orbital Energies (a.u.)
 --------------------------------------------------------------

 Alpha MOs
 -- Occupied --
-15.751 -15.750 -15.750 -15.750  -1.653  -1.045  -1.041  -1.038
 -0.686  -0.570  -0.569  -0.568  -0.534  -0.528
 -- Virtual --
  0.192   0.194   0.196   0.234   0.236   0.239   0.507   0.552
  0.554   0.555   0.607   0.609   0.649   0.650   0.652   0.741
  0.742   0.742   0.801   0.982   0.984   0.985   1.338   1.339
  1.339   1.450   1.454   1.628   1.632   1.635   1.757   1.759
  1.761   1.899   1.900   1.901   1.902   1.902   2.004   2.030
  2.030   2.031   3.115   3.115   3.116   3.179   3.181   3.187
  3.371   3.518   3.521   3.523   3.684   3.689   3.693   3.874
  3.910   3.913   3.918   3.954   3.957   4.306   4.310   4.315
  4.371   4.380   4.388   4.829   4.830   4.833   4.836   4.837
  4.840   4.872   4.891   4.898   4.948   4.951   4.953   5.010
  5.011   5.013   5.051   5.053   5.056   5.427   5.432   5.437
  5.531   5.533   5.599   5.724   5.730   5.736   6.107   6.114
  6.125   6.127   6.128   6.794   6.805   6.815   7.521   9.675
  9.715   9.757
 --------------------------------------------------------------


                        RESTRICTED (RHF) MOLECULAR ORBITAL COEFFICIENTS
                         1         2         3         4         5         6
 eigenvalues:        -15.751   -15.750   -15.750   -15.750    -1.653    -1.045
   1  N 1   s        0.49264  -0.29894   0.78228  -0.11354  -0.09407   0.11384
   2  N 1   s       -0.00342   0.00298  -0.00785   0.00115   0.21975  -0.29623
   3  N 1   s        0.02057  -0.01288   0.03375  -0.00491   0.05381  -0.07783
   4  N 1   s        0.00078   0.00069  -0.00187   0.00029   0.06113  -0.21479
   5  N 1   px      -0.00102   0.00067  -0.00175   0.00027  -0.03700   0.00900
   6  N 1   py      -0.00102   0.00066  -0.00176   0.00026  -0.03696  -0.05779
   7  N 1   pz      -0.00101   0.00066  -0.00174   0.00025  -0.03703   0.04088
   8  N 1   px       0.00023  -0.00139   0.00198  -0.00092  -0.05135   0.02269
   9  N 1   py       0.00026  -0.00008   0.00253  -0.00055  -0.05141  -0.06791
  10  N 1   pz       0.00021  -0.00109   0.00229   0.00046  -0.05127   0.06604
  11  N 1   px      -0.00017  -0.00042   0.00065  -0.00028  -0.00887   0.01297
  12  N 1   py      -0.00017  -0.00005   0.00081  -0.00018  -0.00891  -0.01028
  13  N 1   pz      -0.00017  -0.00033   0.00073   0.00012  -0.00883   0.02424
  14  N 1   d 1      0.00014  -0.00008   0.00010   0.00013   0.00454   0.00444
  15  N 1   d 2      0.00015  -0.00013   0.00004  -0.00012   0.00459   0.00136
  16  N 1   d 3      0.00000   0.00004  -0.00000  -0.00011  -0.00001  -0.00501
  17  N 1   d 4      0.00015   0.00010   0.00014  -0.00005   0.00464  -0.00495
  18  N 1   d 5      0.00000   0.00012   0.00005   0.00003  -0.00000  -0.00450
  19  N 1   d 1     -0.00005   0.00016  -0.00079   0.00061   0.00953   0.00553
  20  N 1   d 2     -0.00004  -0.00001  -0.00098  -0.00023   0.00954  -0.00110
  21  N 1   d 3      0.00001   0.00012  -0.00000  -0.00042  -0.00011  -0.00999
  22  N 1   d 4     -0.00003   0.00076  -0.00066  -0.00001   0.00955  -0.01462
  23  N 1   d 5      0.00001   0.00040   0.00017   0.00011  -0.00006  -0.00895
  24  N 1   f 1      0.00001  -0.00005   0.00004  -0.00015  -0.00131   0.00011
  25  N 1   f 2      0.00003  -0.00004   0.00008  -0.00001  -0.00114  -0.00035
  26  N 1   f 3      0.00001   0.00002   0.00009   0.00016  -0.00104   0.00142
  27  N 1   f 4     -0.00002   0.00004  -0.00009  -0.00000   0.00177  -0.00006
  28  N 1   f 5      0.00001  -0.00015   0.00003   0.00011  -0.00108   0.00272
  29  N 1   f 6     -0.00000  -0.00020  -0.00009  -0.00006  -0.00002   0.00215
  30  N 1   f 7     -0.00001  -0.00007  -0.00009   0.00012   0.00134   0.00172
  31  N 2   s        0.46593  -0.14717  -0.23109   0.81534  -0.09343  -0.12185
  32  N 2   s       -0.00316   0.00144   0.00228  -0.00813   0.21829   0.31708
  33  N 2   s        0.01941  -0.00633  -0.00996   0.03514   0.05348   0.08331
  34  N 2   s        0.00083   0.00031   0.00050  -0.00188   0.06070   0.23007
  35  N 2   px       0.00095  -0.00032  -0.00052   0.00181   0.03643   0.01071
  36  N 2   py       0.00095  -0.00033  -0.00052   0.00181   0.03667  -0.05494
  37  N 2   pz      -0.00096   0.00033   0.00051  -0.00183  -0.03716  -0.03448
  38  N 2   px      -0.00017  -0.00043   0.00074  -0.00242   0.05060   0.02584
  39  N 2   py      -0.00015   0.00087   0.00128  -0.00205   0.05091  -0.06342
  40  N 2   pz       0.00016  -0.00075   0.00009   0.00249  -0.05151  -0.05834
  41  N 2   px       0.00019  -0.00012   0.00023  -0.00076   0.00874   0.01430
  42  N 2   py       0.00020   0.00026   0.00039  -0.00066   0.00879  -0.00862
  43  N 2   pz      -0.00020  -0.00022   0.00001   0.00078  -0.00886  -0.02291
  44  N 2   d 1      0.00014  -0.00008   0.00010   0.00012   0.00449  -0.00396
  45  N 2   d 2     -0.00015  -0.00013   0.00005  -0.00012  -0.00462   0.00171
  46  N 2   d 3      0.00000   0.00005  -0.00011  -0.00002   0.00007   0.00438
  47  N 2   d 4     -0.00014   0.00010   0.00014  -0.00005  -0.00460  -0.00450
  48  N 2   d 5     -0.00000  -0.00011  -0.00005  -0.00003  -0.00004   0.00439
  49  N 2   d 1     -0.00001  -0.00007   0.00068  -0.00073   0.00935  -0.00425
  50  N 2   d 2      0.00001  -0.00063  -0.00017   0.00077  -0.00954  -0.00064
  51  N 2   d 3     -0.00000   0.00019  -0.00039  -0.00008   0.00009   0.00885
  52  N 2   d 4      0.00002   0.00014   0.00015   0.00099  -0.00950  -0.01412
  53  N 2   d 5     -0.00001  -0.00040  -0.00017  -0.00011  -0.00007   0.00878
  54  N 2   f 1     -0.00001  -0.00010   0.00011  -0.00006   0.00129   0.00026
  55  N 2   f 2      0.00003  -0.00002  -0.00003   0.00009  -0.00114   0.00042
  56  N 2   f 3     -0.00001   0.00016  -0.00009  -0.00006   0.00108   0.00121
  57  N 2   f 4     -0.00001   0.00002   0.00002  -0.00010   0.00172   0.00008
  58  N 2   f 5     -0.00001  -0.00001  -0.00016  -0.00011   0.00108   0.00250
  59  N 2   f 6      0.00000   0.00020   0.00008   0.00006   0.00001  -0.00212
  60  N 2   f 7      0.00001  -0.00001  -0.00016   0.00004  -0.00134   0.00152
  61  N 3   s        0.51157   0.81901  -0.03118  -0.15312  -0.09470   0.06712
  62  N 3   s       -0.00361  -0.00826   0.00032   0.00157   0.22121  -0.17469
  63  N 3   s        0.02139   0.03535  -0.00134  -0.00662   0.05413  -0.04587
  64  N 3   s        0.00074  -0.00202   0.00008   0.00041   0.06157  -0.12671
  65  N 3   px       0.00107   0.00184  -0.00007  -0.00034   0.03756  -0.05010
  66  N 3   py      -0.00105  -0.00182   0.00006   0.00034  -0.03681  -0.07352
  67  N 3   pz       0.00106   0.00184  -0.00007  -0.00035   0.03731  -0.01752
  68  N 3   px      -0.00027  -0.00256   0.00034  -0.00032   0.05210  -0.07433
  69  N 3   py       0.00030   0.00237   0.00074  -0.00066  -0.05117  -0.09371
  70  N 3   pz      -0.00029  -0.00227   0.00066   0.00107   0.05178  -0.03000
  71  N 3   px       0.00016  -0.00082   0.00010  -0.00007   0.00901  -0.02339
  72  N 3   py      -0.00015   0.00077   0.00021  -0.00021  -0.00888  -0.01988
  73  N 3   pz       0.00015  -0.00074   0.00019   0.00033   0.00896  -0.01194
  74  N 3   d 1     -0.00015  -0.00007   0.00011   0.00012  -0.00457  -0.00216
  75  N 3   d 2     -0.00014  -0.00012   0.00005  -0.00012  -0.00455  -0.00519
  76  N 3   d 3      0.00000   0.00002   0.00008   0.00009  -0.00000  -0.00220
  77  N 3   d 4      0.00015   0.00009   0.00014  -0.00005   0.00469  -0.00656
  78  N 3   d 5      0.00001  -0.00001   0.00009  -0.00008   0.00008  -0.00824
  79  N 3   d 1      0.00006   0.00093   0.00032   0.00019  -0.00958  -0.00228
  80  N 3   d 2      0.00007   0.00076   0.00012  -0.00064  -0.00954  -0.00886
  81  N 3   d 3     -0.00000   0.00008   0.00030   0.00032  -0.00002  -0.00438
  82  N 3   d 4     -0.00006  -0.00087   0.00052   0.00006   0.00974  -0.01654
  83  N 3   d 5      0.00001  -0.00005   0.00033  -0.00030   0.00012  -0.01651
  84  N 3   f 1      0.00001   0.00010   0.00004   0.00012  -0.00136   0.00131
  85  N 3   f 2      0.00004   0.00009  -0.00000  -0.00002  -0.00113  -0.00030
  86  N 3   f 3      0.00001   0.00002  -0.00003  -0.00019  -0.00105  -0.00028
  87  N 3   f 4      0.00002   0.00009  -0.00001  -0.00003  -0.00176   0.00010
  88  N 3   f 5     -0.00001  -0.00004   0.00017   0.00006   0.00108  -0.00214
  89  N 3   f 6      0.00000  -0.00003   0.00016  -0.00015   0.00006  -0.00399
  90  N 3   f 7      0.00001   0.00009   0.00013   0.00004  -0.00134  -0.00200
  91  N 4   s        0.48577  -0.41824  -0.53889  -0.50559  -0.09406  -0.06007
  92  N 4   s       -0.00335   0.00416   0.00539   0.00510   0.21973   0.15637
  93  N 4   s        0.02027  -0.01802  -0.02324  -0.02182   0.05380   0.04105
  94  N 4   s        0.00080   0.00094   0.00126   0.00125   0.06113   0.11368
  95  N 4   px      -0.00100   0.00094   0.00120   0.00113  -0.03699  -0.04695
  96  N 4   py       0.00100  -0.00094  -0.00121  -0.00113   0.03724  -0.07486
  97  N 4   pz       0.00100  -0.00092  -0.00120  -0.00113   0.03673   0.02337
  98  N 4   px       0.00022  -0.00163  -0.00090  -0.00180  -0.05134  -0.06950
  99  N 4   py      -0.00019   0.00146   0.00198   0.00083   0.05165  -0.09615
 100  N 4   pz      -0.00024   0.00044   0.00175   0.00184   0.05102   0.03742
 101  N 4   px      -0.00018  -0.00050  -0.00031  -0.00057  -0.00887  -0.02176
 102  N 4   py       0.00018   0.00045   0.00062   0.00030   0.00892  -0.02088
 103  N 4   pz       0.00017   0.00016   0.00055   0.00058   0.00882   0.01348
 104  N 4   d 1     -0.00015  -0.00008   0.00010   0.00012  -0.00461   0.00250
 105  N 4   d 2      0.00015  -0.00013   0.00005  -0.00011   0.00459  -0.00475
 106  N 4   d 3     -0.00000  -0.00011   0.00003   0.00005  -0.00007   0.00290
 107  N 4   d 4     -0.00014   0.00010   0.00014  -0.00006  -0.00457  -0.00674
 108  N 4   d 5     -0.00000   0.00001  -0.00009   0.00008  -0.00004   0.00817
 109  N 4   d 1      0.00002  -0.00086  -0.00042  -0.00032  -0.00959   0.00325
 110  N 4   d 2     -0.00003   0.00015   0.00093   0.00035   0.00954  -0.00817
 111  N 4   d 3     -0.00001  -0.00039   0.00010   0.00018  -0.00013   0.00582
 112  N 4   d 4      0.00005  -0.00025  -0.00030  -0.00093  -0.00950  -0.01680
 113  N 4   d 5     -0.00001   0.00005  -0.00033   0.00029  -0.00007   0.01639
 114  N 4   f 1     -0.00001   0.00015  -0.00003   0.00003   0.00134   0.00122
 115  N 4   f 2      0.00003  -0.00004  -0.00006  -0.00006  -0.00114   0.00020
 116  N 4   f 3     -0.00001  -0.00011   0.00014   0.00003   0.00100  -0.00001
 117  N 4   f 4      0.00001  -0.00004  -0.00007  -0.00007  -0.00176   0.00001
 118  N 4   f 5      0.00001   0.00009  -0.00001  -0.00016  -0.00104  -0.00234
 119  N 4   f 6     -0.00000   0.00003  -0.00017   0.00015  -0.00003   0.00393
 120  N 4   f 7     -0.00001   0.00014   0.00006  -0.00005   0.00137  -0.00211
                         7         8         9        10        11        12
 eigenvalues:         -1.041    -1.038    -0.686    -0.570    -0.569    -0.568
   1  N 1   s       -0.03221   0.11348  -0.04571  -0.04784  -0.05100  -0.04679
   2  N 1   s        0.08389  -0.29580   0.12369   0.13256   0.14130   0.12958
   3  N 1   s        0.02204  -0.07772   0.03790   0.04130   0.04404   0.04039
   4  N 1   s        0.06127  -0.21753   0.16415   0.12685   0.13488   0.12330
   5  N 1   px       0.07999   0.00628   0.08719   0.01593   0.15809   0.00840
   6  N 1   py      -0.03867   0.03944   0.08838   0.01578   0.01967   0.15593
   7  N 1   pz      -0.03829  -0.05915   0.08600   0.15759   0.02118   0.01546
   8  N 1   px       0.10578   0.01948   0.11344   0.01834   0.21623   0.00829
   9  N 1   py      -0.05559   0.06464   0.11516   0.01826   0.02363   0.21376
  10  N 1   pz      -0.05518  -0.06978   0.11172   0.21556   0.02544   0.01798
  11  N 1   px       0.02539   0.01246   0.06052   0.02776   0.13417   0.02209
  12  N 1   py      -0.01639   0.02415   0.06144   0.02784   0.03191   0.13160
  13  N 1   pz      -0.01646  -0.01097   0.05961   0.13227   0.03263   0.02713
  14  N 1   d 1     -0.00385  -0.00462  -0.00654   0.00212  -0.00214  -0.00199
  15  N 1   d 2      0.00733   0.00153  -0.00646  -0.00236   0.00202  -0.00233
  16  N 1   d 3      0.00448   0.00625   0.00010  -0.00807   0.00399   0.00386
  17  N 1   d 4     -0.00381   0.00458  -0.00638  -0.00250  -0.00247   0.00224
  18  N 1   d 5     -0.00792   0.00223   0.00006   0.00007  -0.00674   0.00724
  19  N 1   d 1     -0.00724  -0.01433  -0.01761   0.00302  -0.00757  -0.00705
  20  N 1   d 2      0.01710  -0.00075  -0.01738  -0.00782   0.00260  -0.00781
  21  N 1   d 3      0.00902   0.01273   0.00034  -0.02197   0.01095   0.01056
  22  N 1   d 4     -0.00712   0.00597  -0.01715  -0.00808  -0.00819   0.00329
  23  N 1   d 5     -0.01594   0.00454   0.00020   0.00025  -0.01831   0.01970
  24  N 1   f 1      0.00257   0.00123   0.00190  -0.00019   0.00258  -0.00212
  25  N 1   f 2      0.00011  -0.00046   0.00516  -0.00044  -0.00052  -0.00052
  26  N 1   f 3     -0.00282  -0.00171   0.00141   0.00288  -0.00088  -0.00150
  27  N 1   f 4     -0.00022  -0.00090  -0.00245   0.00237  -0.00172  -0.00158
  28  N 1   f 5     -0.00056  -0.00231   0.00140   0.00296  -0.00142  -0.00079
  29  N 1   f 6      0.00383  -0.00104  -0.00004   0.00000   0.00230  -0.00241
  30  N 1   f 7      0.00066  -0.00216  -0.00196   0.00010   0.00188  -0.00272
  31  N 2   s        0.08673   0.06787  -0.04574   0.08144  -0.01582  -0.01581
  32  N 2   s       -0.22583  -0.17689   0.12367  -0.22560   0.04377   0.04378
  33  N 2   s       -0.05937  -0.04650   0.03787  -0.07030   0.01361   0.01366
  34  N 2   s       -0.16474  -0.13002   0.16454  -0.21534   0.04189   0.04150
  35  N 2   px       0.06271  -0.04918  -0.08630   0.08716   0.00683  -0.12995
  36  N 2   py      -0.05524  -0.01666  -0.08672   0.09254  -0.12497   0.01399
  37  N 2   pz      -0.00075  -0.07264   0.08677  -0.13678  -0.05843  -0.05402
  38  N 2   px       0.07722  -0.07344  -0.11230   0.11521   0.01062  -0.17984
  39  N 2   py      -0.08327  -0.02921  -0.11284   0.12271  -0.17289   0.02056
  40  N 2   pz       0.00714  -0.09242   0.11274  -0.18402  -0.08257  -0.07640
  41  N 2   px       0.01456  -0.02355  -0.05978   0.09129  -0.00032  -0.10170
  42  N 2   py      -0.02706  -0.01202  -0.05994   0.09575  -0.09717   0.00479
  43  N 2   pz       0.00743  -0.01981   0.06001  -0.12823  -0.03792  -0.03483
  44  N 2   d 1      0.00051  -0.00635  -0.00641   0.00042  -0.00254  -0.00254
  45  N 2   d 2      0.00538  -0.00503   0.00645  -0.00204   0.00114  -0.00307
  46  N 2   d 3     -0.00021   0.00812  -0.00005   0.00259   0.00688   0.00641
  47  N 2   d 4     -0.00578  -0.00192   0.00640  -0.00179  -0.00292   0.00141
  48  N 2   d 5      0.00783  -0.00212   0.00004  -0.00017   0.00662  -0.00711
  49  N 2   d 1     -0.00202  -0.01637  -0.01722   0.00467  -0.00684  -0.00699
  50  N 2   d 2      0.01478  -0.00854   0.01732  -0.00861   0.00344  -0.00670
  51  N 2   d 3     -0.00045   0.01643  -0.00012   0.00708   0.01878   0.01756
  52  N 2   d 4     -0.00949  -0.00178   0.01722  -0.00790  -0.00631   0.00416
  53  N 2   d 5      0.01575  -0.00426   0.00006  -0.00050   0.01797  -0.01939
  54  N 2   f 1      0.00142  -0.00241  -0.00186   0.00021   0.00197  -0.00273
  55  N 2   f 2     -0.00030  -0.00018   0.00514   0.00079  -0.00014  -0.00012
  56  N 2   f 3     -0.00143   0.00308  -0.00150   0.00118   0.00258   0.00172
  57  N 2   f 4     -0.00030  -0.00096  -0.00239  -0.00037  -0.00252  -0.00233
  58  N 2   f 5      0.00089   0.00242  -0.00150   0.00113   0.00188   0.00243
  59  N 2   f 6     -0.00381   0.00107  -0.00003   0.00009  -0.00221   0.00243
  60  N 2   f 7      0.00177   0.00159   0.00189  -0.00030   0.00252  -0.00204
  61  N 3   s        0.08628  -0.12173  -0.04568  -0.01577  -0.01326   0.08126
  62  N 3   s       -0.22479   0.31734   0.12369   0.04372   0.03677  -0.22516
  63  N 3   s       -0.05902   0.08337   0.03792   0.01361   0.01149  -0.07017
  64  N 3   s       -0.16433   0.23320   0.16368   0.04201   0.03500  -0.21480
  65  N 3   px       0.06294   0.00969  -0.08810  -0.13203   0.01116   0.09144
  66  N 3   py      -0.00115  -0.03406   0.08760  -0.05773  -0.06607  -0.13322
  67  N 3   pz      -0.05605  -0.05687  -0.08768   0.01305  -0.13090   0.09347
  68  N 3   px       0.07742   0.02486  -0.11460  -0.18256   0.01667   0.12103
  69  N 3   py       0.00657  -0.05785   0.11412  -0.08164  -0.09304  -0.17950
  70  N 3   pz      -0.08444  -0.06575  -0.11407   0.01952  -0.18119   0.12384
  71  N 3   px       0.01453   0.01437  -0.06130  -0.10280   0.00381   0.09567
  72  N 3   py       0.00715  -0.02275   0.06104  -0.03724  -0.04444  -0.12635
  73  N 3   pz      -0.02748  -0.00937  -0.06113   0.00457  -0.10193   0.09671
  74  N 3   d 1     -0.00582  -0.00449   0.00651   0.00124  -0.00341  -0.00176
  75  N 3   d 2      0.00536   0.00176   0.00647  -0.00331   0.00108  -0.00175
  76  N 3   d 3     -0.00677  -0.00601   0.00000   0.00288  -0.00948  -0.00105
  77  N 3   d 4      0.00041  -0.00405  -0.00651  -0.00279  -0.00305   0.00052
  78  N 3   d 5      0.00413  -0.00160  -0.00007  -0.00933  -0.00258  -0.00219
  79  N 3   d 1     -0.00954  -0.01414   0.01755   0.00370  -0.00770  -0.00802
  80  N 3   d 2      0.01477  -0.00051   0.01745  -0.00735   0.00323  -0.00790
  81  N 3   d 3     -0.01366  -0.01214  -0.00001   0.00787  -0.02584  -0.00287
  82  N 3   d 4     -0.00216  -0.00447  -0.01755  -0.00734  -0.00799   0.00492
  83  N 3   d 5      0.00831  -0.00318  -0.00014  -0.02529  -0.00696  -0.00591
  84  N 3   f 1     -0.00211  -0.00136   0.00193   0.00325   0.00041   0.00034
  85  N 3   f 2     -0.00032   0.00044   0.00518  -0.00020  -0.00016   0.00088
  86  N 3   f 3      0.00319   0.00165   0.00146  -0.00049   0.00328   0.00021
  87  N 3   f 4     -0.00024  -0.00092   0.00243   0.00105  -0.00302  -0.00079
  88  N 3   f 5     -0.00203  -0.00213  -0.00149   0.00132  -0.00319   0.00004
  89  N 3   f 6      0.00198  -0.00076  -0.00005  -0.00317  -0.00094  -0.00071
  90  N 3   f 7     -0.00042  -0.00199   0.00188  -0.00291  -0.00125  -0.00117
  91  N 4   s       -0.14081  -0.05865  -0.04571  -0.01749   0.08008  -0.01901
  92  N 4   s        0.36673   0.15281   0.12369   0.04842  -0.22185   0.05268
  93  N 4   s        0.09635   0.04019   0.03790   0.01505  -0.06914   0.01646
  94  N 4   s        0.26780   0.11207   0.16413   0.04659  -0.21170   0.04987
  95  N 4   px       0.04565  -0.04719   0.08718  -0.05351  -0.13917  -0.05398
  96  N 4   py       0.01670   0.02265  -0.08761  -0.12938   0.09126   0.00598
  97  N 4   pz       0.01572  -0.07641  -0.08677   0.00988   0.08179  -0.13633
  98  N 4   px       0.04885  -0.06974   0.11342  -0.07589  -0.18766  -0.07660
  99  N 4   py       0.03602   0.03636  -0.11399  -0.17880   0.12097   0.00976
 100  N 4   pz       0.03461  -0.09847  -0.11290   0.01513   0.10775  -0.18841
 101  N 4   px       0.00370  -0.02194   0.06052  -0.03353  -0.12992  -0.03372
 102  N 4   py       0.01836   0.01323  -0.06070  -0.10079   0.09500  -0.00221
 103  N 4   pz       0.01791  -0.02205  -0.06037   0.00162   0.08699  -0.10812
 104  N 4   d 1      0.00241  -0.00677   0.00650   0.00127  -0.00213  -0.00316
 105  N 4   d 2      0.00341  -0.00488  -0.00646  -0.00254   0.00027  -0.00292
 106  N 4   d 3      0.00228  -0.00847   0.00006   0.00273  -0.00174  -0.00932
 107  N 4   d 4      0.00244   0.00259   0.00642  -0.00305  -0.00167   0.00132
 108  N 4   d 5     -0.00417   0.00163   0.00004   0.00921   0.00247   0.00227
 109  N 4   d 1      0.00019  -0.01682   0.01748   0.00382  -0.00887  -0.00679
 110  N 4   d 2      0.01244  -0.00853  -0.01739  -0.00682   0.00425  -0.00807
 111  N 4   d 3      0.00456  -0.01712   0.00011   0.00740  -0.00482  -0.02549
 112  N 4   d 4      0.00029   0.00358   0.01728  -0.00660  -0.00755   0.00411
 113  N 4   d 5     -0.00841   0.00330   0.00006   0.02498   0.00668   0.00623
 114  N 4   f 1     -0.00100   0.00240  -0.00189   0.00292   0.00133   0.00109
 115  N 4   f 2      0.00050   0.00022   0.00516  -0.00020   0.00082  -0.00018
 116  N 4   f 3      0.00171  -0.00316  -0.00144   0.00138  -0.00018  -0.00315
 117  N 4   f 4     -0.00035  -0.00086   0.00244   0.00098  -0.00099  -0.00296
 118  N 4   f 5     -0.00055   0.00270   0.00143  -0.00037   0.00047   0.00331
 119  N 4   f 6     -0.00202   0.00080   0.00002   0.00304   0.00079   0.00082
 120  N 4   f 7      0.00071   0.00175  -0.00194  -0.00328  -0.00036  -0.00039
                        13        14        15        16        17        18
 eigenvalues:         -0.534    -0.528     0.192     0.194     0.196     0.234
   1  N 1   s        0.00108   0.00094  -0.00528   0.00095   0.00521   0.07500
   2  N 1   s       -0.00311  -0.00271   0.01045  -0.00188  -0.01025  -0.14063
   3  N 1   s       -0.00099  -0.00086   0.00189  -0.00034  -0.00183  -0.02188
   4  N 1   s       -0.00194  -0.00157   0.11507  -0.02102  -0.11574  -1.90832
   5  N 1   px       0.09866  -0.10168  -0.13883  -0.00489  -0.13488   0.06370
   6  N 1   py      -0.13595  -0.03786  -0.06075   0.02514   0.18740   0.08499
   7  N 1   pz       0.03537   0.13831   0.18415  -0.01746  -0.03734   0.04565
   8  N 1   px       0.13761  -0.14224  -0.19225  -0.00622  -0.18192   0.13259
   9  N 1   py      -0.18979  -0.05301  -0.08569   0.03490   0.25947   0.15837
  10  N 1   pz       0.04929   0.19331   0.24842  -0.02333  -0.04830   0.11408
  11  N 1   px       0.08959  -0.09441  -0.45117  -0.00669  -0.37917   0.70120
  12  N 1   py      -0.12442  -0.03539  -0.21279   0.07953   0.59179   0.99209
  13  N 1   pz       0.03186   0.12756   0.53738  -0.04971  -0.08525   0.35906
  14  N 1   d 1      0.00236   0.00898  -0.00794   0.00090   0.00179   0.01306
  15  N 1   d 2      0.00658  -0.00662   0.00529  -0.00002   0.00553   0.00289
  16  N 1   d 3     -0.00066  -0.00237   0.00454  -0.00039  -0.00099  -0.00617
  17  N 1   d 4     -0.00904  -0.00247   0.00211  -0.00078  -0.00674  -0.00495
  18  N 1   d 5     -0.00246   0.00063  -0.00107  -0.00048  -0.00427  -0.00326
  19  N 1   d 1      0.00662   0.02530   0.00890  -0.00103  -0.00442  -0.06489
  20  N 1   d 2      0.01828  -0.01850  -0.00093  -0.00094  -0.00727  -0.04955
  21  N 1   d 3     -0.00248  -0.00961  -0.01935   0.00212   0.00425   0.01521
  22  N 1   d 4     -0.02490  -0.00685   0.00145   0.00025   0.00224  -0.03717
  23  N 1   d 5     -0.00932   0.00255   0.00455   0.00130   0.01866   0.00823
  24  N 1   f 1     -0.00155  -0.00278  -0.00122  -0.00112  -0.00110   0.00203
  25  N 1   f 2      0.00005   0.00005  -0.00006   0.00001   0.00006   0.00079
  26  N 1   f 3     -0.00241   0.00239   0.00191   0.00131  -0.00026   0.00122
  27  N 1   f 4     -0.00072  -0.00272   0.00134  -0.00019  -0.00043  -0.00290
  28  N 1   f 5      0.00329   0.00091   0.00160  -0.00164  -0.00041   0.00112
  29  N 1   f 6      0.00367  -0.00099  -0.00041   0.00154  -0.00244  -0.00037
  30  N 1   f 7      0.00004   0.00322   0.00039  -0.00125  -0.00166  -0.00249
  31  N 2   s       -0.00068   0.00053   0.00446  -0.00072  -0.00116  -0.09228
  32  N 2   s        0.00179  -0.00157  -0.00878   0.00133   0.00233   0.17300
  33  N 2   s        0.00057  -0.00050  -0.00157   0.00020   0.00044   0.02687
  34  N 2   s        0.00227  -0.00060  -0.09766   0.01736   0.02451   2.35269
  35  N 2   px      -0.10314   0.10184  -0.09879  -0.14146   0.09597   0.07215
  36  N 2   py       0.13856   0.03969  -0.10197   0.16175  -0.04787   0.09728
  37  N 2   pz       0.03889   0.13902  -0.18384   0.01761   0.04395  -0.07283
  38  N 2   px      -0.14385   0.14232  -0.13693  -0.19290   0.13141   0.15517
  39  N 2   py       0.19355   0.05559  -0.14145   0.22152  -0.06497   0.18675
  40  N 2   pz       0.05425   0.19415  -0.24809   0.02356   0.05906  -0.16115
  41  N 2   px      -0.09405   0.09428  -0.32760  -0.42162   0.31348   0.79363
  42  N 2   py       0.12618   0.03694  -0.33446   0.49381  -0.13963   1.09536
  43  N 2   pz       0.03553   0.12814  -0.54281   0.05173   0.14408  -0.66058
  44  N 2   d 1      0.00244   0.00903   0.00812  -0.00086  -0.00248  -0.01064
  45  N 2   d 2     -0.00664   0.00652   0.00373   0.00549  -0.00437   0.00590
  46  N 2   d 3     -0.00079  -0.00261  -0.00476   0.00049   0.00149   0.00389
  47  N 2   d 4      0.00909   0.00237   0.00367  -0.00623   0.00207  -0.00213
  48  N 2   d 5     -0.00268   0.00054  -0.00002   0.00409  -0.00209   0.00315
  49  N 2   d 1      0.00679   0.02542  -0.00846   0.00111   0.00265   0.07114
  50  N 2   d 2     -0.01845   0.01821   0.00007  -0.00480   0.00264  -0.06521
  51  N 2   d 3     -0.00296  -0.01020   0.01927  -0.00205  -0.00525  -0.00848
  52  N 2   d 4      0.02532   0.00661   0.00002   0.00448  -0.00217  -0.05247
  53  N 2   d 5     -0.01008   0.00221   0.00023  -0.01726   0.00892  -0.00838
  54  N 2   f 1      0.00145   0.00275  -0.00100  -0.00176  -0.00012   0.00238
  55  N 2   f 2     -0.00002  -0.00005   0.00010  -0.00002  -0.00004  -0.00112
  56  N 2   f 3      0.00235  -0.00252   0.00208   0.00064   0.00074   0.00191
  57  N 2   f 4     -0.00067  -0.00261  -0.00138   0.00014   0.00033   0.00343
  58  N 2   f 5     -0.00336  -0.00098   0.00141  -0.00099  -0.00155   0.00174
  59  N 2   f 6      0.00370  -0.00097  -0.00045   0.00137  -0.00254   0.00045
  60  N 2   f 7     -0.00014  -0.00324   0.00054  -0.00189  -0.00046  -0.00289
  61  N 3   s        0.00060  -0.00064   0.00089  -0.00074  -0.00411   0.03639
  62  N 3   s       -0.00176   0.00167  -0.00178   0.00136   0.00803  -0.06821
  63  N 3   s       -0.00056   0.00053  -0.00032   0.00019   0.00140  -0.01059
  64  N 3   s       -0.00077   0.00219  -0.01986   0.01823   0.09290  -0.92729
  65  N 3   px      -0.09878   0.09777   0.08903   0.14379  -0.08657   0.00938
  66  N 3   py      -0.13506  -0.03486   0.05338  -0.02504  -0.18690   0.07626
  67  N 3   pz      -0.03338  -0.13584  -0.03928  -0.16603  -0.08484  -0.02724
  68  N 3   px      -0.13792   0.13679   0.12158   0.19716  -0.11648  -0.01433
  69  N 3   py      -0.18867  -0.04875   0.07385  -0.03477  -0.25858   0.12213
  70  N 3   pz      -0.04647  -0.18974  -0.05416  -0.22661  -0.11396  -0.05995
  71  N 3   px      -0.08997   0.09043   0.24831   0.44480  -0.23485   0.11716
  72  N 3   py      -0.12365  -0.03216   0.14936  -0.07797  -0.58047   0.82501
  73  N 3   pz      -0.03020  -0.12575  -0.12364  -0.50133  -0.23333  -0.29327
  74  N 3   d 1     -0.00246  -0.00896   0.00138   0.00670   0.00366  -0.00294
  75  N 3   d 2     -0.00668   0.00656  -0.00287  -0.00576   0.00354  -0.01393
  76  N 3   d 3     -0.00044  -0.00214   0.00098   0.00391   0.00199  -0.00064
  77  N 3   d 4     -0.00899  -0.00239  -0.00134   0.00081   0.00651  -0.01126
  78  N 3   d 5     -0.00229   0.00063  -0.00146  -0.00167   0.00340  -0.00963
  79  N 3   d 1     -0.00682  -0.02494  -0.00062  -0.00541  -0.00540   0.02640
  80  N 3   d 2     -0.01856   0.01833   0.00274   0.00378  -0.00533   0.04337
  81  N 3   d 3     -0.00183  -0.00881  -0.00372  -0.01718  -0.00899   0.00191
  82  N 3   d 4     -0.02477  -0.00666   0.00036  -0.00015  -0.00272  -0.00425
  83  N 3   d 5     -0.00898   0.00259   0.00738   0.00731  -0.01575   0.02457
  84  N 3   f 1     -0.00163  -0.00280  -0.00174  -0.00076   0.00043   0.00034
  85  N 3   f 2     -0.00005  -0.00002   0.00004  -0.00002  -0.00009   0.00036
  86  N 3   f 3     -0.00250   0.00235   0.00177   0.00119   0.00104   0.00107
  87  N 3   f 4      0.00082   0.00282  -0.00020  -0.00107  -0.00069   0.00134
  88  N 3   f 5     -0.00325  -0.00081   0.00100  -0.00212  -0.00061  -0.00026
  89  N 3   f 6     -0.00359   0.00098  -0.00056   0.00147  -0.00250   0.00134
  90  N 3   f 7      0.00002  -0.00318   0.00149  -0.00049  -0.00139   0.00179
  91  N 4   s       -0.00121  -0.00102  -0.00009   0.00050   0.00005  -0.01868
  92  N 4   s        0.00325   0.00273   0.00014  -0.00080  -0.00008   0.03495
  93  N 4   s        0.00104   0.00087   0.00001  -0.00005  -0.00000   0.00534
  94  N 4   s        0.00355   0.00308   0.00250  -0.01456  -0.00164   0.48189
  95  N 4   px       0.10324  -0.09792   0.12937   0.00762   0.14404   0.01699
  96  N 4   py       0.13688   0.03413   0.09353  -0.16099   0.05146   0.06383
  97  N 4   pz      -0.03963  -0.13720   0.03619   0.16675   0.09239   0.00156
  98  N 4   px       0.14412  -0.13684   0.17707   0.01070   0.19672   0.00740
  99  N 4   py       0.19135   0.04776   0.12824  -0.22066   0.07033   0.09359
 100  N 4   pz      -0.05526  -0.19150   0.04953   0.22745   0.12598   0.01573
 101  N 4   px       0.09443  -0.09030   0.37219   0.03013   0.45776   0.20409
 102  N 4   py       0.12469   0.03136   0.26822  -0.49074   0.16081   0.71800
 103  N 4   pz      -0.03638  -0.12693   0.10682   0.50456   0.29515   0.00435
 104  N 4   d 1     -0.00236  -0.00896  -0.00135  -0.00671  -0.00428   0.00537
 105  N 4   d 2      0.00667  -0.00653  -0.00438  -0.00039  -0.00640  -0.01115
 106  N 4   d 3     -0.00080  -0.00216  -0.00072  -0.00398  -0.00247   0.00310
 107  N 4   d 4      0.00908   0.00247  -0.00301   0.00623  -0.00213  -0.01367
 108  N 4   d 5     -0.00265   0.00067   0.00254  -0.00199   0.00302   0.00948
 109  N 4   d 1     -0.00652  -0.02494   0.00079   0.00544   0.00333  -0.01982
 110  N 4   d 2      0.01846  -0.01829   0.00316  -0.00004   0.00511   0.02866
 111  N 4   d 3     -0.00294  -0.00879   0.00345   0.01692   0.00998  -0.00789
 112  N 4   d 4      0.02532   0.00692   0.00219  -0.00442   0.00190   0.00991
 113  N 4   d 5     -0.01009   0.00260  -0.01206   0.00898  -0.01212  -0.02428
 114  N 4   f 1      0.00144   0.00280  -0.00193  -0.00014  -0.00050  -0.00001
 115  N 4   f 2     -0.00002  -0.00001   0.00002   0.00001  -0.00002  -0.00022
 116  N 4   f 3      0.00236  -0.00232   0.00155   0.00186   0.00006   0.00046
 117  N 4   f 4      0.00067   0.00282   0.00020   0.00104   0.00060  -0.00080
 118  N 4   f 5      0.00332   0.00087   0.00081  -0.00148  -0.00173   0.00030
 119  N 4   f 6     -0.00373   0.00097  -0.00030   0.00143  -0.00253  -0.00126
 120  N 4   f 7      0.00009   0.00320   0.00166  -0.00111  -0.00019   0.00139
                        19        20        21        22        23        24
 eigenvalues:          0.236     0.239     0.507     0.552     0.554     0.555
   1  N 1   s       -0.01339   0.07785   0.04616  -0.01208  -0.00145  -0.01186
   2  N 1   s        0.02499  -0.14464  -0.09361  -0.14474  -0.01701  -0.13628
   3  N 1   s        0.00381  -0.02158  -0.01492  -0.08598  -0.01028  -0.08393
   4  N 1   s        0.34742  -2.05388   0.41787   2.55299   0.30863   2.55263
   5  N 1   px       0.03155   0.07571  -0.03625   0.11550   0.06297   0.11765
   6  N 1   py      -0.03542   0.02924  -0.03734   0.15077  -0.00927   0.09227
   7  N 1   pz      -0.03083   0.09584  -0.03519   0.09010  -0.01036   0.15082
   8  N 1   px       0.02844   0.15424  -0.23499   0.16770  -0.05680   0.16500
   9  N 1   py      -0.05462   0.09352  -0.23814   0.11308   0.06013   0.21260
  10  N 1   pz      -0.04682   0.17905  -0.23175   0.20032   0.05532   0.11213
  11  N 1   px       0.42145   0.81635   0.40865  -1.11846  -0.42922  -1.12625
  12  N 1   py      -0.39901   0.34139   0.41705  -1.33545  -0.00006  -0.98771
  13  N 1   pz      -0.39677   1.05604   0.40025  -0.95252   0.01582  -1.32065
  14  N 1   d 1      0.00708  -0.00418   0.01486  -0.01489  -0.00039  -0.01913
  15  N 1   d 2     -0.01566   0.00255   0.01476  -0.01616  -0.00562  -0.01651
  16  N 1   d 3     -0.00480   0.00541  -0.00027  -0.00133  -0.00130   0.00233
  17  N 1   d 4      0.00646   0.01469   0.01467  -0.01865   0.00002  -0.01397
  18  N 1   d 5      0.00860   0.00479  -0.00015  -0.00125   0.00291   0.00141
  19  N 1   d 1     -0.00280  -0.04085  -0.01769   0.20471   0.08220   0.05199
  20  N 1   d 2      0.03279  -0.05144  -0.01725   0.13835  -0.11188   0.14241
  21  N 1   d 3      0.01187  -0.01374   0.00091  -0.05983  -0.04970   0.06335
  22  N 1   d 4     -0.00234  -0.07146  -0.01679   0.04845   0.07777   0.20989
  23  N 1   d 5     -0.02180  -0.01244   0.00057  -0.04519   0.08986   0.03292
  24  N 1   f 1      0.00048   0.00213   0.00084  -0.00671  -0.01206  -0.00148
  25  N 1   f 2     -0.00015   0.00093  -0.01025  -0.00184  -0.00030  -0.00315
  26  N 1   f 3     -0.00103   0.00214   0.00069   0.00171   0.01176  -0.01097
  27  N 1   f 4      0.00036  -0.00272  -0.00132   0.00744   0.00151   0.00536
  28  N 1   f 5     -0.00042   0.00269   0.00079   0.00649   0.00099  -0.01482
  29  N 1   f 6      0.00122   0.00091   0.00003   0.00787  -0.01661  -0.00614
  30  N 1   f 7      0.00071  -0.00136  -0.00091   0.01341  -0.00119  -0.00359
  31  N 2   s       -0.04936   0.02985   0.04585   0.01435   0.00874  -0.00649
  32  N 2   s        0.09218  -0.05543  -0.09818   0.15433   0.10077  -0.07029
  33  N 2   s        0.01412  -0.00826  -0.01708   0.09339   0.06087  -0.04368
  34  N 2   s        1.27468  -0.78898   0.46957  -2.80352  -1.83021   1.33627
  35  N 2   px       0.06746   0.00286   0.03424   0.12526   0.11949  -0.02955
  36  N 2   py       0.00274  -0.02493   0.03361   0.16149   0.04711  -0.05455
  37  N 2   pz      -0.05877   0.05538  -0.03386  -0.11046  -0.09158   0.10557
  38  N 2   px       0.11943  -0.02092   0.23116   0.19121   0.06293  -0.14267
  39  N 2   py       0.04011  -0.05419   0.23293   0.14045   0.17619  -0.09954
  40  N 2   pz      -0.11017   0.08939  -0.23246  -0.21659  -0.11225   0.02108
  41  N 2   px       0.77769   0.14347  -0.38723  -1.22131  -1.02013   0.39625
  42  N 2   py      -0.03056  -0.26159  -0.38409  -1.44281  -0.58573   0.54862
  43  N 2   pz      -0.63057   0.72914   0.38671   1.12723   0.85136  -0.86039
  44  N 2   d 1      0.00190  -0.01091   0.01428   0.01700   0.01216  -0.01184
  45  N 2   d 2     -0.00612  -0.01351  -0.01447  -0.01810  -0.01449   0.00624
  46  N 2   d 3     -0.00291   0.00824   0.00009   0.00134  -0.00013   0.00259
  47  N 2   d 4      0.01589  -0.00222  -0.01440  -0.02053  -0.00908   0.00829
  48  N 2   d 5     -0.00841  -0.00424  -0.00010   0.00104  -0.00270  -0.00096
  49  N 2   d 1      0.02651  -0.00080  -0.01392  -0.20495  -0.08284  -0.04275
  50  N 2   d 2     -0.02017   0.04002   0.01384   0.16287   0.00699  -0.16042
  51  N 2   d 3      0.00784  -0.02038  -0.00010   0.04694  -0.01015   0.09061
  52  N 2   d 4     -0.05501   0.02172   0.01563   0.07244   0.19673  -0.09228
  53  N 2   d 5      0.02098   0.01075  -0.00058   0.04456  -0.08862  -0.03162
  54  N 2   f 1      0.00171  -0.00007  -0.00083  -0.00635  -0.00909  -0.00776
  55  N 2   f 2     -0.00060   0.00039  -0.01027   0.00255   0.00186  -0.00140
  56  N 2   f 3      0.00112  -0.00164  -0.00059  -0.00053   0.00132   0.01604
  57  N 2   f 4      0.00168  -0.00085  -0.00114  -0.00819  -0.00433   0.00124
  58  N 2   f 5      0.00175  -0.00123  -0.00068   0.00460  -0.00955   0.01219
  59  N 2   f 6     -0.00115  -0.00052   0.00020  -0.00794   0.01648   0.00585
  60  N 2   f 7     -0.00063   0.00072   0.00080   0.01299  -0.00385   0.00312
  61  N 3   s       -0.04380  -0.09337   0.04640  -0.00609   0.00821   0.01233
  62  N 3   s        0.08171   0.17348  -0.08917  -0.07767   0.09796   0.15827
  63  N 3   s        0.01240   0.02590  -0.01285  -0.04577   0.05928   0.09564
  64  N 3   s        1.13809   2.46063   0.36849   1.35159  -1.77959  -2.87575
  65  N 3   px       0.06551   0.08573   0.03818  -0.02810   0.11813   0.12933
  66  N 3   py      -0.04615  -0.04868  -0.03856   0.10581  -0.08583  -0.10973
  67  N 3   pz       0.00039   0.10295   0.03878  -0.05389   0.04495   0.16150
  68  N 3   px       0.11401   0.17915   0.23854  -0.13513   0.05795   0.18679
  69  N 3   py      -0.08898  -0.12834  -0.23719   0.01448  -0.10363  -0.21600
  70  N 3   pz       0.03430   0.19941   0.23678  -0.09801   0.17391   0.12979
  71  N 3   px       0.75367   0.91057  -0.42890   0.39458  -1.00415  -1.24770
  72  N 3   py      -0.54582  -0.57807   0.42948  -0.85362   0.81144   1.13548
  73  N 3   pz      -0.07883   1.14243  -0.43176   0.54719  -0.56462  -1.43677
  74  N 3   d 1      0.01568  -0.00212  -0.01510   0.00783  -0.00858  -0.02061
  75  N 3   d 2     -0.00719   0.00448  -0.01503   0.00608  -0.01406  -0.01791
  76  N 3   d 3      0.00886  -0.00452  -0.00005  -0.00066   0.00263  -0.00217
  77  N 3   d 4      0.00170  -0.01243   0.01522  -0.01198   0.01187   0.01640
  78  N 3   d 5     -0.00202  -0.00304   0.00013  -0.00308  -0.00104  -0.00068
  79  N 3   d 1     -0.05109  -0.05304   0.01877  -0.09311   0.19372   0.07197
  80  N 3   d 2     -0.01514  -0.06330   0.02056  -0.15899  -0.00036   0.16203
  81  N 3   d 3     -0.02223   0.01171  -0.00045  -0.01882   0.08108  -0.05873
  82  N 3   d 4      0.02410   0.07770  -0.02040  -0.04325  -0.08264  -0.21070
  83  N 3   d 5      0.00560   0.00915   0.00021  -0.09368  -0.03809  -0.02373
  84  N 3   f 1     -0.00187  -0.00256   0.00088   0.00250   0.01361   0.00160
  85  N 3   f 2     -0.00044  -0.00094  -0.01022  -0.00122   0.00164   0.00295
  86  N 3   f 3      0.00005  -0.00238   0.00094  -0.00538  -0.01074   0.01101
  87  N 3   f 4     -0.00189  -0.00325   0.00140  -0.00376   0.00620   0.00596
  88  N 3   f 5      0.00015   0.00282  -0.00085  -0.00649   0.00587  -0.01378
  89  N 3   f 6      0.00034   0.00074   0.00005  -0.01776  -0.00718  -0.00440
  90  N 3   f 7     -0.00156  -0.00195   0.00105  -0.01122   0.00813  -0.00171
  91  N 4   s        0.10657  -0.01474   0.04613   0.00568  -0.01549   0.00427
  92  N 4   s       -0.19892   0.02744  -0.09374   0.05806  -0.18181   0.05834
  93  N 4   s       -0.03034   0.00417  -0.01500   0.03570  -0.10989   0.03466
  94  N 4   s       -2.76023   0.38317   0.41985  -1.07953   3.30136  -1.03400
  95  N 4   px       0.10137   0.01372  -0.03620  -0.01881   0.17466  -0.01751
  96  N 4   py      -0.08418   0.00359   0.03554   0.09819  -0.14414   0.03455
  97  N 4   pz      -0.09019   0.04821   0.03677   0.03615  -0.14489   0.09172
  98  N 4   px       0.20497   0.00481  -0.23484  -0.11724   0.17768  -0.11592
  99  N 4   py      -0.18407   0.01584   0.23658   0.00447  -0.22612   0.08624
 100  N 4   pz      -0.19101   0.06896   0.23304   0.09242  -0.22413  -0.01386
 101  N 4   px       1.10962   0.24298   0.40788   0.29555  -1.59511   0.27231
 102  N 4   py      -0.91251   0.01004  -0.40463  -0.77328   1.41564  -0.37604
 103  N 4   pz      -0.95040   0.64628  -0.41064  -0.39853   1.41264  -0.71713
 104  N 4   d 1     -0.00667  -0.01341  -0.01482  -0.00623   0.02071  -0.01012
 105  N 4   d 2      0.00234  -0.01134   0.01474   0.00501  -0.02291   0.00401
 106  N 4   d 3     -0.00077  -0.00924  -0.00018   0.00080  -0.00038  -0.00331
 107  N 4   d 4     -0.00776   0.00447  -0.01467  -0.01041   0.02061  -0.00537
 108  N 4   d 5      0.00202   0.00276  -0.00010   0.00260   0.00130   0.00070
 109  N 4   d 1      0.07516   0.01267   0.01539   0.09333  -0.19635  -0.06713
 110  N 4   d 2     -0.06808   0.02706  -0.01710  -0.13897   0.11848  -0.13618
 111  N 4   d 3      0.00276   0.02295  -0.00092   0.03197  -0.02184  -0.09435
 112  N 4   d 4      0.07641  -0.01588   0.01898  -0.06303  -0.19957   0.09098
 113  N 4   d 5     -0.00465  -0.00682  -0.00058   0.09505   0.03650   0.02228
 114  N 4   f 1     -0.00314  -0.00036  -0.00087   0.00209   0.01085   0.00834
 115  N 4   f 2      0.00119  -0.00015  -0.01024   0.00089  -0.00321   0.00115
 116  N 4   f 3     -0.00203   0.00140  -0.00077  -0.00326  -0.00026  -0.01559
 117  N 4   f 4      0.00393  -0.00025   0.00125   0.00361  -0.00882   0.00052
 118  N 4   f 5      0.00234  -0.00111   0.00106  -0.00826  -0.00463   0.01316
 119  N 4   f 6     -0.00020  -0.00030  -0.00009   0.01774   0.00695   0.00402
 120  N 4   f 7     -0.00289   0.00007  -0.00070  -0.01174   0.00551   0.00516
                        25        26        27        28        29        30
 eigenvalues:          0.607     0.609     0.649     0.650     0.652     0.741
   1  N 1   s       -0.00027  -0.00026   0.01568  -0.04278  -0.01655   0.00006
   2  N 1   s        0.00176   0.00172  -0.10030   0.27358   0.10574  -0.00009
   3  N 1   s        0.00070   0.00069  -0.03252   0.09016   0.03542  -0.00012
   4  N 1   s       -0.02000  -0.02004   0.38715  -1.08497  -0.43064   0.00386
   5  N 1   px       0.05179  -0.05298   0.10612  -0.01742  -0.11153   0.10096
   6  N 1   py      -0.07238  -0.01987   0.06528  -0.10942   0.08585  -0.05636
   7  N 1   pz       0.01854   0.07078  -0.09161  -0.10535  -0.06960  -0.04419
   8  N 1   px       0.22254  -0.22211   0.26358   0.17096  -0.26744   0.20489
   9  N 1   py      -0.30401  -0.08149   0.13071  -0.12592   0.36418  -0.11268
  10  N 1   pz       0.08159   0.30357  -0.37959  -0.11279  -0.13321  -0.09252
  11  N 1   px      -0.42130   0.43098  -0.35651  -0.28362   0.36485  -1.23784
  12  N 1   py       0.58479   0.16058  -0.16846   0.14069  -0.52401   0.68953
  13  N 1   pz      -0.15185  -0.57939   0.56014   0.11508   0.17405   0.54528
  14  N 1   d 1      0.00211   0.00794  -0.00698  -0.00806  -0.00506  -0.00694
  15  N 1   d 2      0.00578  -0.00583   0.00855  -0.00143  -0.00832   0.01526
  16  N 1   d 3     -0.00547  -0.02029   0.00968   0.00218   0.00291   0.00705
  17  N 1   d 4     -0.00795  -0.00215   0.00541  -0.00871   0.00664  -0.00831
  18  N 1   d 5     -0.02041   0.00543  -0.00192  -0.00427   0.00882  -0.01432
  19  N 1   d 1      0.00951   0.03792   0.06663  -0.00238   0.01174   0.07633
  20  N 1   d 2      0.02664  -0.02847  -0.03692  -0.05086   0.03386  -0.17276
  21  N 1   d 3      0.01325   0.05166   0.01932   0.00647   0.00549  -0.06471
  22  N 1   d 4     -0.03733  -0.01070  -0.01491  -0.00314  -0.07363   0.09707
  23  N 1   d 5      0.04960  -0.01387  -0.00450  -0.00630   0.01413   0.13725
  24  N 1   f 1     -0.00834  -0.00038  -0.00812  -0.00302  -0.00460  -0.01440
  25  N 1   f 2      0.00010   0.00011   0.00507  -0.01335  -0.00497  -0.00001
  26  N 1   f 3     -0.00548  -0.00407   0.00765   0.00427  -0.00656   0.02293
  27  N 1   f 4     -0.00255  -0.01004  -0.00791  -0.00030  -0.00178  -0.00251
  28  N 1   f 5      0.00269  -0.00634   0.00431  -0.00309   0.00997  -0.00936
  29  N 1   f 6     -0.00294   0.00082  -0.00243  -0.00523   0.01192  -0.01715
  30  N 1   f 7     -0.00695   0.00458   0.00880   0.00423   0.00240  -0.00068
  31  N 2   s       -0.00002  -0.00019  -0.04712   0.00385  -0.00802   0.00032
  32  N 2   s       -0.00014   0.00122   0.29894  -0.02416   0.05045  -0.00084
  33  N 2   s       -0.00040   0.00041   0.09845  -0.00777   0.01697  -0.00052
  34  N 2   s        0.00896  -0.01259  -1.18069   0.09399  -0.20812   0.01382
  35  N 2   px      -0.05297   0.05291   0.10512  -0.01863  -0.11118  -0.08791
  36  N 2   py       0.06970   0.01978   0.06494  -0.11039   0.08670   0.13220
  37  N 2   pz       0.01943   0.07057  -0.08590  -0.10912  -0.06935   0.04534
  38  N 2   px      -0.22461   0.22394   0.09099  -0.04142  -0.40128  -0.17703
  39  N 2   py       0.30225   0.08362  -0.04023  -0.33754   0.23462   0.27183
  40  N 2   pz       0.08163   0.30309  -0.02318  -0.37368  -0.17912   0.09312
  41  N 2   px       0.42850  -0.42830  -0.07584   0.05729   0.57773   1.07119
  42  N 2   py      -0.57071  -0.16196   0.10338   0.47100  -0.32360  -1.61981
  43  N 2   pz      -0.15797  -0.57466  -0.02634   0.53853   0.25040  -0.54836
  44  N 2   d 1      0.00199   0.00788  -0.00661  -0.00835  -0.00528   0.00690
  45  N 2   d 2     -0.00589   0.00551   0.00856  -0.00146  -0.00841  -0.01333
  46  N 2   d 3     -0.00545  -0.02030  -0.00028   0.00935   0.00430  -0.00717
  47  N 2   d 4      0.00801   0.00188   0.00546  -0.00853   0.00680   0.01994
  48  N 2   d 5     -0.02028   0.00534   0.00181   0.00413  -0.00877  -0.01991
  49  N 2   d 1      0.01218   0.03931  -0.01970   0.06203   0.02439  -0.07546
  50  N 2   d 2     -0.02874   0.02880   0.01114   0.00586   0.07172   0.14975
  51  N 2   d 3      0.01287   0.04889   0.00154   0.01754   0.00790   0.06705
  52  N 2   d 4      0.03772   0.01099   0.03278   0.05276  -0.03342  -0.22441
  53  N 2   d 5      0.04786  -0.01344   0.00505   0.00698  -0.01546   0.19041
  54  N 2   f 1      0.00835   0.00050   0.00182   0.00929   0.00301   0.00061
  55  N 2   f 2      0.00007   0.00016  -0.01473   0.00118  -0.00263   0.00026
  56  N 2   f 3      0.00547   0.00376   0.00282  -0.00203  -0.01083  -0.01126
  57  N 2   f 4     -0.00265  -0.01010   0.00164  -0.00706  -0.00292   0.00207
  58  N 2   f 5     -0.00286   0.00598  -0.00055  -0.00956   0.00574   0.02522
  59  N 2   f 6     -0.00285   0.00076   0.00233   0.00521  -0.01141  -0.02879
  60  N 2   f 7      0.00673  -0.00463  -0.00114  -0.00818  -0.00560   0.01404
  61  N 3   s       -0.00021  -0.00004   0.00869   0.00318   0.04814  -0.00026
  62  N 3   s        0.00126  -0.00010  -0.05626  -0.02088  -0.31037   0.00059
  63  N 3   s        0.00040  -0.00041  -0.01821  -0.00708  -0.10235   0.00057
  64  N 3   s       -0.01155   0.01007   0.21557   0.08456   1.23530  -0.01736
  65  N 3   px      -0.05195   0.05171   0.10896  -0.02028  -0.10921   0.08718
  66  N 3   py      -0.07251  -0.01889   0.06639  -0.11049   0.08507   0.05601
  67  N 3   pz      -0.01860  -0.07341  -0.08841  -0.10852  -0.06677  -0.03063
  68  N 3   px      -0.22098   0.21977   0.39768  -0.04670  -0.09480   0.17393
  69  N 3   py      -0.30423  -0.08098   0.17006  -0.37227   0.02285   0.11300
  70  N 3   pz      -0.07915  -0.30499  -0.24170  -0.33147   0.04047  -0.06455
  71  N 3   px       0.42482  -0.42270  -0.57093   0.06090   0.09533  -1.07026
  72  N 3   py       0.58886   0.15320  -0.22859   0.52499  -0.00031  -0.68923
  73  N 3   pz       0.15053   0.59383   0.33519   0.47023  -0.10261   0.38042
  74  N 3   d 1     -0.00236  -0.00784  -0.00676  -0.00839  -0.00489  -0.00456
  75  N 3   d 2     -0.00611   0.00574   0.00856  -0.00156  -0.00817   0.01328
  76  N 3   d 3     -0.00537  -0.02038  -0.00611  -0.00818   0.00180  -0.00505
  77  N 3   d 4     -0.00800  -0.00227   0.00524  -0.00859   0.00679   0.00836
  78  N 3   d 5     -0.02044   0.00548   0.00827  -0.00586  -0.00084   0.01302
  79  N 3   d 1     -0.00922  -0.03756   0.03660   0.05429  -0.03076   0.05196
  80  N 3   d 2     -0.02634   0.02628  -0.06956   0.00508  -0.00828  -0.15017
  81  N 3   d 3      0.01433   0.05341  -0.01150  -0.01504   0.00071   0.04704
  82  N 3   d 4     -0.03583  -0.00783  -0.02479   0.06524   0.02278  -0.09691
  83  N 3   d 5      0.05222  -0.01435   0.01515  -0.00992  -0.00247  -0.12557
  84  N 3   f 1     -0.00833  -0.00026   0.00477   0.00904   0.00002   0.01238
  85  N 3   f 2      0.00015   0.00006   0.00258   0.00102   0.01499  -0.00032
  86  N 3   f 3     -0.00540  -0.00409  -0.01091   0.00038   0.00312  -0.02067
  87  N 3   f 4      0.00265   0.01002  -0.00397  -0.00623   0.00281  -0.00137
  88  N 3   f 5     -0.00253   0.00660  -0.00394   0.01064  -0.00113  -0.01089
  89  N 3   f 6      0.00327  -0.00079  -0.01027   0.00772   0.00141  -0.01416
  90  N 3   f 7      0.00727  -0.00446   0.00700   0.00733  -0.00041  -0.00307
  91  N 4   s        0.00003   0.00003   0.02341   0.03575  -0.02290  -0.00013
  92  N 4   s       -0.00062  -0.00062  -0.15027  -0.22866   0.14586   0.00049
  93  N 4   s       -0.00070  -0.00070  -0.04919  -0.07535   0.04840   0.00009
  94  N 4   s        0.01737   0.01749   0.58580   0.90651  -0.58839  -0.00042
  95  N 4   px       0.05310  -0.05162   0.10671  -0.02152  -0.11017  -0.10117
  96  N 4   py       0.06946   0.01742   0.06836  -0.10997   0.08591  -0.13310
  97  N 4   pz      -0.02086  -0.07356  -0.08764  -0.10554  -0.07074   0.03258
  98  N 4   px       0.22297  -0.22151   0.22220  -0.25922  -0.23166  -0.20573
  99  N 4   py       0.30090   0.07736   0.34544  -0.16426   0.15321  -0.27122
 100  N 4   pz      -0.08513  -0.30607  -0.16098  -0.15158  -0.34919   0.06675
 101  N 4   px      -0.43198   0.42000  -0.28648   0.40198   0.31204   1.23602
 102  N 4   py      -0.57170  -0.14360  -0.50590   0.19908  -0.19987   1.63031
 103  N 4   pz       0.16802   0.59202   0.20051   0.17950   0.52336  -0.39382
 104  N 4   d 1     -0.00209  -0.00775  -0.00677  -0.00822  -0.00533   0.00474
 105  N 4   d 2      0.00563  -0.00598   0.00834  -0.00159  -0.00850  -0.01528
 106  N 4   d 3     -0.00555  -0.02021  -0.00371  -0.00323  -0.00888   0.00518
 107  N 4   d 4      0.00811   0.00216   0.00531  -0.00857   0.00673  -0.02003
 108  N 4   d 5     -0.02043   0.00550  -0.00813   0.00607   0.00113   0.02138
 109  N 4   d 1     -0.01122  -0.03877   0.01443   0.00761   0.07183  -0.05303
 110  N 4   d 2      0.02987  -0.02518  -0.02518   0.06172   0.02569   0.17201
 111  N 4   d 3      0.01298   0.05154  -0.00760  -0.00857  -0.01449  -0.04952
 112  N 4   d 4      0.03642   0.00889  -0.06763   0.00710  -0.01316   0.22517
 113  N 4   d 5      0.04995  -0.01343  -0.01612   0.00945   0.00214  -0.20438
 114  N 4   f 1      0.00842   0.00036  -0.00537  -0.00352  -0.00806  -0.00275
 115  N 4   f 2      0.00004   0.00004   0.00716   0.01116  -0.00729   0.00001
 116  N 4   f 3      0.00560   0.00421  -0.00567   0.00658   0.00712   0.01349
 117  N 4   f 4      0.00249   0.00990  -0.00176  -0.00139  -0.00757   0.00116
 118  N 4   f 5      0.00271  -0.00624  -0.00905   0.00412  -0.00523   0.02348
 119  N 4   f 6      0.00282  -0.00086   0.01012  -0.00766  -0.00132  -0.03153
 120  N 4   f 7     -0.00706   0.00452  -0.00302  -0.00512  -0.00819   0.01200
                        31        32        33        34        35        36
 eigenvalues:          0.742     0.742     0.801     0.982     0.984     0.985
   1  N 1   s       -0.00123   0.00008  -0.00329   0.00288  -0.00359   0.00305
   2  N 1   s        0.00283  -0.00024   0.48101  -0.20961   0.25853  -0.21789
   3  N 1   s        0.00253  -0.00018   0.10208  -0.06536   0.08116  -0.06883
   4  N 1   s       -0.07631   0.00498  -0.31292   0.95382  -1.20171   1.03268
   5  N 1   px      -0.00701  -0.10280   0.02227  -0.01493  -0.03353  -0.01510
   6  N 1   py       0.12408   0.04331   0.02399   0.03431   0.01140  -0.01152
   7  N 1   pz      -0.12480   0.05998   0.02067  -0.01248   0.01113   0.03794
   8  N 1   px      -0.00357  -0.21112  -0.01191  -0.05123   0.02232  -0.05857
   9  N 1   py       0.25834   0.08606  -0.00845  -0.01200   0.05805  -0.05300
  10  N 1   pz      -0.24955   0.12477  -0.01525  -0.05147   0.06296  -0.01041
  11  N 1   px       0.07032   1.25695   0.15966  -0.15707   0.41957  -0.16850
  12  N 1   py      -1.52809  -0.52612   0.15107  -0.36787   0.22317  -0.18156
  13  N 1   pz       1.51827  -0.73481   0.16747  -0.17005   0.22998  -0.39791
  14  N 1   d 1     -0.01863   0.00924   0.00910  -0.00461   0.00519  -0.00047
  15  N 1   d 2     -0.00030  -0.01551   0.00911  -0.00481   0.00144  -0.00472
  16  N 1   d 3      0.01927  -0.00943  -0.00002  -0.00249   0.00243   0.00544
  17  N 1   d 4      0.01890   0.00626   0.00913  -0.00051   0.00516  -0.00440
  18  N 1   d 5      0.01185   0.01322  -0.00001  -0.00476  -0.00423  -0.00034
  19  N 1   d 1      0.20375  -0.10029   0.13174  -0.07579   0.06990   0.12247
  20  N 1   d 2      0.00366   0.17303   0.12985  -0.08711  -0.10945  -0.07627
  21  N 1   d 3     -0.18213   0.08818  -0.00489  -0.15846   0.15337   0.35115
  22  N 1   d 4     -0.21854  -0.07209   0.12791   0.12623   0.07192  -0.06298
  23  N 1   d 5     -0.11622  -0.12793  -0.00296  -0.30786  -0.27462  -0.02011
  24  N 1   f 1     -0.01524   0.00901  -0.00267  -0.00431   0.00736   0.00094
  25  N 1   f 2      0.00023  -0.00001   0.00227   0.00225  -0.00257   0.00199
  26  N 1   f 3      0.01031  -0.01441  -0.00178  -0.00408  -0.00106  -0.00776
  27  N 1   f 4     -0.00623   0.00293   0.00337   0.00419  -0.00509   0.00683
  28  N 1   f 5      0.02779  -0.00382  -0.00164   0.00181   0.00495  -0.00737
  29  N 1   f 6      0.01981   0.02709   0.00025   0.00593   0.00575   0.00015
  30  N 1   f 7      0.02155  -0.00879   0.00290   0.00665  -0.00529  -0.00096
  31  N 2   s        0.00063  -0.00027  -0.00377  -0.00284   0.00316   0.00356
  32  N 2   s       -0.00149   0.00057   0.48913   0.20781  -0.22842  -0.25554
  33  N 2   s       -0.00125   0.00059   0.10452   0.06496  -0.07126  -0.08017
  34  N 2   s        0.03724  -0.01825  -0.34686  -0.95725   1.04456   1.19008
  35  N 2   px       0.07113  -0.08829  -0.02190  -0.01488  -0.03504   0.00983
  36  N 2   py       0.04902   0.02857  -0.02080   0.03487   0.00903   0.01308
  37  N 2   pz       0.12173  -0.06031   0.02060   0.01203  -0.01584   0.03555
  38  N 2   px       0.14978  -0.18427   0.01036  -0.05158   0.01338   0.05831
  39  N 2   py       0.10566   0.05608   0.01223  -0.01025   0.04950   0.06080
  40  N 2   pz       0.24838  -0.12434  -0.01409   0.05237  -0.05901  -0.01938
  41  N 2   px      -0.88246   1.07840  -0.15964  -0.15715   0.38749   0.22595
  42  N 2   py      -0.60553  -0.34431  -0.16408  -0.36707   0.19476   0.20688
  43  N 2   pz      -1.48871   0.73463   0.17127   0.17588  -0.17754  -0.42613
  44  N 2   d 1      0.01875  -0.00920   0.00899   0.00451  -0.00496  -0.00121
  45  N 2   d 2      0.01077  -0.01320  -0.00918  -0.00469   0.00087   0.00489
  46  N 2   d 3     -0.01940   0.00956   0.00019   0.00251  -0.00322   0.00489
  47  N 2   d 4      0.00719   0.00439  -0.00911  -0.00061   0.00454   0.00521
  48  N 2   d 5      0.00196  -0.01045   0.00001   0.00474   0.00420   0.00025
  49  N 2   d 1     -0.20479   0.10039   0.12803   0.07459  -0.08780   0.11444
  50  N 2   d 2     -0.12176   0.14767  -0.12852  -0.08099  -0.12156   0.06542
  51  N 2   d 3      0.18321  -0.08943  -0.00039   0.15703  -0.20118   0.32430
  52  N 2   d 4     -0.08053  -0.04851  -0.13023   0.12637   0.06149   0.07658
  53  N 2   d 5     -0.01853   0.10007   0.00010   0.30914   0.27515   0.01929
  54  N 2   f 1     -0.02142   0.00767   0.00260  -0.00438   0.00719   0.00024
  55  N 2   f 2      0.00052  -0.00033   0.00208  -0.00207   0.00224   0.00256
  56  N 2   f 3      0.02430  -0.01232   0.00175  -0.00427  -0.00193   0.00746
  57  N 2   f 4      0.00547  -0.00272   0.00328  -0.00420   0.00424   0.00701
  58  N 2   f 5      0.01372  -0.00626   0.00194   0.00173   0.00365   0.00795
  59  N 2   f 6     -0.00082  -0.02335  -0.00018  -0.00580  -0.00547  -0.00056
  60  N 2   f 7      0.01536  -0.01018  -0.00267   0.00668  -0.00536  -0.00009
  61  N 3   s        0.00067   0.00031  -0.00276   0.00321   0.00318  -0.00312
  62  N 3   s       -0.00164  -0.00088   0.47234  -0.23352  -0.22875   0.22134
  63  N 3   s       -0.00133  -0.00050   0.09943  -0.07329  -0.07224   0.06977
  64  N 3   s        0.03916   0.01320  -0.27570   1.08097   1.07925  -1.03759
  65  N 3   px      -0.07563   0.08766  -0.02294   0.01119  -0.03535  -0.01529
  66  N 3   py      -0.12705  -0.04216   0.02409   0.03327  -0.01595   0.01172
  67  N 3   pz      -0.05317  -0.13082  -0.02397   0.01400   0.01018   0.03729
  68  N 3   px      -0.14938   0.18123   0.01324   0.05567   0.01648  -0.05870
  69  N 3   py      -0.25924  -0.08542  -0.00972  -0.01801  -0.05791   0.05223
  70  N 3   pz      -0.10275  -0.26512   0.01148   0.05832   0.05682  -0.01267
  71  N 3   px       0.91383  -1.07812  -0.15814   0.20363   0.40207  -0.16970
  72  N 3   py       1.55785   0.52266   0.14729  -0.39055  -0.17154   0.17822
  73  N 3   pz       0.64477   1.60056  -0.15383   0.19663   0.20893  -0.40041
  74  N 3   d 1     -0.00823  -0.01974  -0.00911   0.00508   0.00456  -0.00040
  75  N 3   d 2     -0.01138   0.01318  -0.00905   0.00489   0.00075  -0.00488
  76  N 3   d 3     -0.00807  -0.02059   0.00010  -0.00290  -0.00217  -0.00543
  77  N 3   d 4     -0.01878  -0.00631   0.00924  -0.00107  -0.00519   0.00450
  78  N 3   d 5     -0.01816   0.00426   0.00016  -0.00436   0.00474   0.00040
  79  N 3   d 1      0.09294   0.22194  -0.12950   0.08068   0.06121   0.12143
  80  N 3   d 2      0.12732  -0.14812  -0.13131   0.06736  -0.11639  -0.08307
  81  N 3   d 3      0.07774   0.19667  -0.00023  -0.17900  -0.13277  -0.34951
  82  N 3   d 4      0.21752   0.07295   0.13200   0.11397  -0.08521   0.06318
  83  N 3   d 5      0.17512  -0.03927  -0.00033  -0.27473   0.30927   0.02071
  84  N 3   f 1      0.00594   0.01888  -0.00250  -0.00558  -0.00679  -0.00101
  85  N 3   f 2      0.00056   0.00025   0.00244   0.00232   0.00234  -0.00223
  86  N 3   f 3      0.00299  -0.02089  -0.00217  -0.00407   0.00184   0.00791
  87  N 3   f 4     -0.00288  -0.00624  -0.00347  -0.00464  -0.00460   0.00668
  88  N 3   f 5      0.01926   0.01987   0.00194  -0.00156   0.00509  -0.00736
  89  N 3   f 6      0.03319  -0.00975  -0.00019  -0.00538   0.00673   0.00010
  90  N 3   f 7      0.01072   0.02057  -0.00266  -0.00722  -0.00466  -0.00098
  91  N 4   s       -0.00008  -0.00011  -0.00327  -0.00314  -0.00275  -0.00360
  92  N 4   s        0.00028   0.00040   0.48085   0.22999   0.19845   0.25707
  93  N 4   s        0.00005   0.00006   0.10202   0.07229   0.06229   0.08058
  94  N 4   s       -0.00007   0.00018  -0.31198  -1.07428  -0.92198  -1.18822
  95  N 4   px       0.00208   0.10267   0.02235   0.01103  -0.03687   0.00987
  96  N 4   py      -0.04977  -0.02662  -0.02131   0.03375  -0.01390  -0.01289
  97  N 4   pz       0.05225   0.12989  -0.02344  -0.01447  -0.01456   0.03515
  98  N 4   px       0.00207   0.21038  -0.01189   0.05542   0.00752   0.05819
  99  N 4   py      -0.10268  -0.05397   0.01363  -0.01678  -0.05076  -0.06057
 100  N 4   pz       0.10556   0.26561   0.00999  -0.05851  -0.05159  -0.02012
 101  N 4   px      -0.03663  -1.25948   0.15915   0.20146   0.36992   0.22657
 102  N 4   py       0.60661   0.33103  -0.16354  -0.39150  -0.14695  -0.20843
 103  N 4   pz      -0.64278  -1.58957  -0.15480  -0.19189  -0.15283  -0.42341
 104  N 4   d 1      0.00795   0.01967  -0.00918  -0.00498  -0.00443  -0.00120
 105  N 4   d 2      0.00051   0.01548   0.00911   0.00491   0.00018   0.00483
 106  N 4   d 3      0.00826   0.02031   0.00001   0.00281   0.00295  -0.00504
 107  N 4   d 4     -0.00746  -0.00420  -0.00905  -0.00104  -0.00446  -0.00529
 108  N 4   d 5      0.00424  -0.00695   0.00000   0.00425  -0.00472  -0.00030
 109  N 4   d 1     -0.08945  -0.22117  -0.12817  -0.07857  -0.08047   0.11255
 110  N 4   d 2     -0.00574  -0.17379   0.12994   0.07158  -0.12861   0.06069
 111  N 4   d 3     -0.07962  -0.19327   0.00005   0.17856   0.18468  -0.32598
 112  N 4   d 4      0.08380   0.04749  -0.13168   0.11658  -0.07320  -0.07969
 113  N 4   d 5     -0.03895   0.06609   0.00005   0.27454  -0.30738  -0.02200
 114  N 4   f 1      0.01164   0.02019   0.00240  -0.00550  -0.00677  -0.00017
 115  N 4   f 2     -0.00017   0.00002   0.00226  -0.00232  -0.00198  -0.00253
 116  N 4   f 3     -0.01129  -0.02329   0.00199  -0.00382   0.00273  -0.00720
 117  N 4   f 4      0.00266   0.00657  -0.00347   0.00480   0.00366   0.00717
 118  N 4   f 5      0.00543   0.01713  -0.00231  -0.00150   0.00385   0.00800
 119  N 4   f 6     -0.01428   0.01344   0.00010   0.00552  -0.00634  -0.00046
 120  N 4   f 7      0.00426   0.01950   0.00238  -0.00719  -0.00469   0.00001
                        37        38        39        40        41        42
 eigenvalues:          1.338     1.339     1.339     1.450     1.454     1.628
   1  N 1   s        0.00786   0.00182   0.00777   0.00053   0.00053   0.00007
   2  N 1   s        1.05421   0.23711   0.97824   0.01240   0.01175  -0.00117
   3  N 1   s        0.37610   0.08430   0.34682   0.00504   0.00479  -0.00035
   4  N 1   s       -5.69296  -1.26541  -5.16635  -0.08851  -0.08359   0.00024
   5  N 1   px       0.00324  -0.04763   0.00527   0.03639  -0.03526  -0.00620
   6  N 1   py      -0.03306   0.02224   0.02620   0.01406   0.04952   0.00485
   7  N 1   pz       0.02450   0.02448  -0.03374  -0.04837  -0.01217   0.00182
   8  N 1   px       0.21736  -0.20655   0.19076   0.11432  -0.10973   0.00641
   9  N 1   py       0.01252   0.16381   0.30200   0.04556   0.15912  -0.00086
  10  N 1   pz       0.32686   0.16485   0.00143  -0.14623  -0.03638  -0.00365
  11  N 1   px       1.43002  -0.43732   1.26965   0.00483   0.02267   0.00136
  12  N 1   py       0.84263   0.67404   1.63589   0.01403   0.01223  -0.00311
  13  N 1   pz       1.71636   0.64757   0.69404   0.03942   0.01975   0.00076
  14  N 1   d 1      0.00186  -0.00340   0.01365   0.00514   0.00145  -0.00107
  15  N 1   d 2      0.00615   0.01167   0.00567  -0.00343   0.00374   0.00397
  16  N 1   d 3      0.00503   0.00472  -0.00665  -0.00497  -0.00132  -0.00217
  17  N 1   d 4      0.01406  -0.00331   0.00100  -0.00117  -0.00467  -0.00287
  18  N 1   d 5      0.00424  -0.00822  -0.00265   0.00130  -0.00502   0.00646
  19  N 1   d 1      0.09683   0.10223  -0.15928   0.39909   0.10367   0.08286
  20  N 1   d 2      0.00682  -0.22629   0.00821  -0.29135   0.29044  -0.26838
  21  N 1   d 3      0.01668   0.02719  -0.03499   0.10620   0.02740   0.15047
  22  N 1   d 4     -0.17918   0.11162   0.11665  -0.10950  -0.39538   0.18487
  23  N 1   d 5      0.00425  -0.02445  -0.00512  -0.02804   0.10473  -0.47896
  24  N 1   f 1     -0.00588  -0.02189   0.01991   0.00748  -0.00027  -0.00678
  25  N 1   f 2      0.00208   0.00026   0.00018  -0.00013  -0.00015   0.00002
  26  N 1   f 3      0.01052   0.03509  -0.01117  -0.00843   0.00384   0.00839
  27  N 1   f 4     -0.01136  -0.00573  -0.00079   0.00188   0.00033   0.00026
  28  N 1   f 5      0.03208  -0.00360  -0.02278  -0.00562  -0.00764  -0.00795
  29  N 1   f 6      0.02329  -0.04232  -0.01294   0.00310  -0.01218   0.00885
  30  N 1   f 7      0.01589   0.00438  -0.02624  -0.00651  -0.00431  -0.00681
  31  N 2   s        0.00276   0.00457  -0.01020   0.00034  -0.00021   0.00043
  32  N 2   s        0.37141   0.59795  -1.27585   0.00670  -0.00910  -0.00291
  33  N 2   s        0.13230   0.21214  -0.45147   0.00282  -0.00329  -0.00048
  34  N 2   s       -2.00883  -3.18296   6.74032  -0.05202   0.04863  -0.01958
  35  N 2   px       0.04057  -0.02649  -0.00316  -0.03623   0.03578   0.00489
  36  N 2   py       0.00392   0.04430   0.01993  -0.01414  -0.04824  -0.00848
  37  N 2   pz       0.04133   0.01474   0.02048  -0.04798  -0.01258  -0.00101
  38  N 2   px       0.13958  -0.24477   0.19821  -0.11336   0.11274  -0.00862
  39  N 2   py      -0.05161   0.12556   0.31968  -0.04406  -0.14888   0.00314
  40  N 2   pz       0.27919   0.18445  -0.12458  -0.14560  -0.03936   0.00528
  41  N 2   px       0.12761  -1.17393   1.53018   0.00407  -0.00299  -0.00990
  42  N 2   py      -0.43819  -0.07275   1.89175   0.00002   0.03747   0.00695
  43  N 2   pz       1.09233   0.98174  -1.30194   0.03678  -0.00212   0.00843
  44  N 2   d 1     -0.00610   0.00082  -0.01277   0.00506   0.00123   0.00131
  45  N 2   d 2     -0.01068   0.00172   0.00952   0.00337  -0.00354  -0.00367
  46  N 2   d 3      0.00828   0.00311   0.00372  -0.00506  -0.00134   0.00207
  47  N 2   d 4     -0.00293  -0.01344   0.00455   0.00108   0.00469   0.00491
  48  N 2   d 5     -0.00413   0.00806   0.00270   0.00127  -0.00503   0.00840
  49  N 2   d 1      0.17519   0.05942   0.10018   0.40529   0.11085  -0.08358
  50  N 2   d 2      0.18696  -0.11727  -0.02953   0.29158  -0.29561   0.23817
  51  N 2   d 3      0.03889   0.01155   0.02040   0.10108   0.02835  -0.15547
  52  N 2   d 4      0.01717   0.21064   0.06974   0.10893   0.40271  -0.32071
  53  N 2   d 5     -0.01660   0.02769   0.00401  -0.03092   0.10837  -0.61633
  54  N 2   f 1      0.02665  -0.00189   0.01336  -0.00744   0.00034   0.00433
  55  N 2   f 2      0.00026   0.00087  -0.00186   0.00011  -0.00010   0.00003
  56  N 2   f 3     -0.03802   0.00743  -0.00051   0.00863  -0.00384  -0.00497
  57  N 2   f 4     -0.00825  -0.00604   0.00537   0.00167   0.00049  -0.00007
  58  N 2   f 5     -0.01768  -0.03210  -0.01310   0.00543   0.00729   0.00545
  59  N 2   f 6     -0.02165   0.04176   0.01343   0.00319  -0.01135   0.00482
  60  N 2   f 7     -0.01832  -0.01511  -0.01944   0.00635   0.00370   0.00478
  61  N 3   s       -0.00916   0.00465   0.00373  -0.00021   0.00032  -0.00002
  62  N 3   s       -1.24150   0.60039   0.47520  -0.00950   0.00602   0.00181
  63  N 3   s       -0.44404   0.21412   0.16897  -0.00348   0.00257   0.00066
  64  N 3   s        6.71629  -3.22089  -2.51996   0.05276  -0.04690  -0.00611
  65  N 3   px      -0.00034  -0.02765   0.03849  -0.03592   0.03546  -0.00526
  66  N 3   py       0.02421   0.01424   0.03832   0.01369   0.04988  -0.00419
  67  N 3   pz       0.01868   0.04338   0.00002   0.04970   0.01208   0.00145
  68  N 3   px       0.23469  -0.25285   0.12131  -0.11093   0.11076   0.00956
  69  N 3   py      -0.09151   0.18118   0.28821   0.04280   0.15994   0.00576
  70  N 3   pz       0.33309   0.11839  -0.08025   0.15748   0.03791  -0.00268
  71  N 3   px       1.60152  -1.18060   0.02324   0.01664  -0.01329  -0.00414
  72  N 3   py      -1.18679   0.98142   1.21040  -0.00895   0.00993   0.00180
  73  N 3   pz       1.89109  -0.08502  -0.57447   0.01370  -0.00604   0.00056
  74  N 3   d 1      0.00410  -0.01314  -0.00354  -0.00513  -0.00154  -0.00083
  75  N 3   d 2      0.00804   0.00173  -0.01170   0.00364  -0.00381   0.00351
  76  N 3   d 3     -0.00417  -0.00873   0.00000  -0.00495  -0.00124   0.00154
  77  N 3   d 4     -0.01352   0.00104  -0.00509  -0.00141  -0.00476   0.00270
  78  N 3   d 5     -0.00289   0.00158  -0.00910   0.00131  -0.00496  -0.00635
  79  N 3   d 1      0.08201   0.21650   0.01091  -0.39109  -0.10393   0.06561
  80  N 3   d 2     -0.01685  -0.12337   0.19521   0.28549  -0.28973  -0.24820
  81  N 3   d 3     -0.01710  -0.03366   0.00294   0.10251   0.03266  -0.10744
  82  N 3   d 4      0.14221   0.06180   0.18793  -0.10149  -0.38870  -0.18600
  83  N 3   d 5     -0.00115   0.00684  -0.02593  -0.02650   0.10764   0.45346
  84  N 3   f 1      0.00418   0.03009  -0.00675   0.00793  -0.00002   0.00682
  85  N 3   f 2     -0.00083   0.00044   0.00067  -0.00010   0.00011  -0.00017
  86  N 3   f 3     -0.01113  -0.02945   0.02332  -0.00924   0.00392  -0.00870
  87  N 3   f 4     -0.01127  -0.00263   0.00250  -0.00201  -0.00051   0.00044
  88  N 3   f 5      0.02600   0.02208   0.02063   0.00641   0.00788  -0.00841
  89  N 3   f 6      0.01582  -0.00782   0.04687  -0.00301   0.01207   0.00964
  90  N 3   f 7      0.01033   0.02704   0.01229   0.00678   0.00447  -0.00696
  91  N 4   s       -0.00131  -0.01106  -0.00148  -0.00042  -0.00040  -0.00046
  92  N 4   s       -0.18473  -1.43536  -0.17690  -0.01558  -0.01451   0.00207
  93  N 4   s       -0.06580  -0.51053  -0.06280  -0.00581  -0.00542   0.00011
  94  N 4   s        0.98626   7.66923   0.94519   0.09035   0.08436   0.02555
  95  N 4   px       0.03511  -0.00664   0.03199   0.03574  -0.03596   0.00481
  96  N 4   py      -0.01082  -0.00569   0.04655  -0.01281  -0.04837   0.00813
  97  N 4   pz       0.04495  -0.00634  -0.01491   0.04958   0.01341  -0.00066
  98  N 4   px       0.14918  -0.29135   0.13692   0.11001  -0.11381  -0.01324
  99  N 4   py      -0.02263   0.22726   0.27516  -0.03814  -0.14873  -0.00652
 100  N 4   pz       0.26765   0.22304  -0.04735   0.15743   0.04360   0.00451
 101  N 4   px       0.30480  -1.91709   0.27765  -0.02594  -0.00604  -0.00883
 102  N 4   py       0.06899   1.72686   0.94838   0.02331   0.03996  -0.00125
 103  N 4   pz       0.92528   1.71588  -0.01055   0.01603   0.01506   0.00849
 104  N 4   d 1     -0.00810   0.01093   0.00430  -0.00501  -0.00122   0.00088
 105  N 4   d 2     -0.00855  -0.00820  -0.00808  -0.00372   0.00346  -0.00396
 106  N 4   d 3     -0.00897   0.00097   0.00304  -0.00492  -0.00137  -0.00146
 107  N 4   d 4      0.00356   0.01083  -0.00885   0.00142   0.00480  -0.00476
 108  N 4   d 5      0.00284  -0.00139   0.00915   0.00135  -0.00504  -0.00879
 109  N 4   d 1      0.21251  -0.04122  -0.06931  -0.39547  -0.10370  -0.05445
 110  N 4   d 2      0.16566  -0.01365   0.15430  -0.28305   0.29813   0.27075
 111  N 4   d 3     -0.04062  -0.00211   0.00657   0.10682   0.02361   0.11210
 112  N 4   d 4     -0.05652  -0.05031   0.21398   0.10880   0.39829   0.32219
 113  N 4   d 5      0.00896  -0.00828   0.02792  -0.02404   0.10557   0.63228
 114  N 4   f 1     -0.02932   0.01070  -0.00003  -0.00794   0.00039  -0.00355
 115  N 4   f 2     -0.00038  -0.00158  -0.00001  -0.00018  -0.00017   0.00016
 116  N 4   f 3      0.03618  -0.00128   0.01273   0.00924  -0.00359   0.00462
 117  N 4   f 4     -0.00822  -0.00836   0.00062  -0.00220  -0.00049  -0.00013
 118  N 4   f 5     -0.02364  -0.00599   0.03079  -0.00619  -0.00749   0.00489
 119  N 4   f 6     -0.01426   0.00733  -0.04675  -0.00322   0.01132   0.00411
 120  N 4   f 7     -0.02339   0.00791   0.01903  -0.00659  -0.00383   0.00417
                        43        44        45        46        47        48
 eigenvalues:          1.632     1.635     1.757     1.759     1.761     1.899
   1  N 1   s       -0.00033   0.00004   0.03424  -0.02571  -0.03450  -0.00031
   2  N 1   s        0.00791  -0.00134   0.03265  -0.03300  -0.05702  -0.00414
   3  N 1   s        0.00252  -0.00045   0.10043  -0.07875  -0.11057  -0.00028
   4  N 1   s       -0.00872   0.00254  -3.72984   2.80716   3.77455  -0.02932
   5  N 1   px      -0.00034   0.00509   0.07511  -0.08171  -0.07560  -0.03251
   6  N 1   py      -0.00786  -0.00173   0.07364  -0.05265  -0.10148   0.04559
   7  N 1   pz       0.00571  -0.00304   0.09885  -0.05143  -0.07185  -0.01212
   8  N 1   px       0.00066  -0.01114   0.34940  -0.32943  -0.33732   0.10941
   9  N 1   py       0.00472   0.00161   0.33706  -0.23916  -0.41518  -0.13434
  10  N 1   pz      -0.01597   0.01099   0.41277  -0.25011  -0.33488   0.03880
  11  N 1   px       0.00096  -0.01567   0.67238  -1.30454  -0.69219  -0.30187
  12  N 1   py       0.01493   0.00546   0.60003  -0.37354  -1.47291   0.43144
  13  N 1   pz      -0.00472   0.00765   1.44785  -0.37392  -0.60123  -0.11298
  14  N 1   d 1     -0.00465   0.00256   0.00254  -0.00706  -0.00889  -0.00337
  15  N 1   d 2     -0.00029  -0.00391   0.00805   0.00008  -0.00825  -0.00918
  16  N 1   d 3     -0.00838   0.00507  -0.00362  -0.00159  -0.00132  -0.00316
  17  N 1   d 4      0.00477   0.00137   0.00868  -0.00727  -0.00166   0.01272
  18  N 1   d 5     -0.00464  -0.00540  -0.00036   0.00301  -0.00196  -0.01026
  19  N 1   d 1      0.31656  -0.17883   0.19873   0.47540   0.55420  -0.00428
  20  N 1   d 2      0.00052   0.25882  -0.48330  -0.33051   0.48050  -0.01704
  21  N 1   d 3      0.59067  -0.34330  -0.34389  -0.20019  -0.20809   0.22745
  22  N 1   d 4     -0.31365  -0.08043  -0.55163   0.48347  -0.19118   0.01831
  23  N 1   d 5      0.34241   0.37887  -0.02552   0.34362  -0.29074   0.81752
  24  N 1   f 1     -0.00217  -0.00572   0.00272  -0.01220  -0.00430  -0.00600
  25  N 1   f 2     -0.00012   0.00002   0.00182  -0.00116  -0.00125  -0.00017
  26  N 1   f 3      0.00288   0.00713   0.01255   0.00266  -0.00258  -0.00409
  27  N 1   f 4      0.00039  -0.00002  -0.00621   0.00800   0.01049  -0.00222
  28  N 1   f 5     -0.00136  -0.00767   0.01322  -0.00235   0.00090   0.00149
  29  N 1   f 6      0.00407   0.01056   0.00111  -0.01014   0.00820  -0.00329
[...]
    54   -4.357790070558e-03
    55   -3.546257347379e-01
    56    3.104166897066e-01
    57    7.561924598378e-01
    58   -5.285339288613e-04
    59   -1.637369027495e-01
    60   -1.237734459199e-01
    61    3.866575355984e-04
    62    3.000036085040e-04
    63   -1.121162115374e-03
    64   -9.053425481518e-04
    65   -3.657850363180e-01
    66    2.299288882200e-02
    67    3.876913979821e-01
    68    1.137805416764e+00
    69   -7.193722634031e-02
    70   -1.208885838855e+00
    71    4.943584341187e-01
    72   -3.093653363100e-02
    73   -5.250960978630e-01
    74   -8.309613967928e-02
    75   -7.137347907786e-03
    76    1.015836695227e-01
    77    4.157761222127e-02
    78   -1.083891219350e-01
    79   -7.783898601338e-01
    80   -4.992281258745e-02
    81    8.115578062863e-01
    82    3.976937759855e-01
    83   -8.633062194700e-01
    84    9.239568390827e-02
    85   -2.523816532892e-01
    86    5.957880734815e-01
    87    3.201793843842e-01
    88   -6.134729707204e-04
    89   -3.051967763246e-01
    90   -4.689283079934e-01
    91   -1.285885673308e-04
    92    8.659563660118e-05
    93    4.235581971663e-04
    94   -3.862748217147e-04
    95   -2.975330154049e-03
    96    3.852710342729e-01
    97   -3.876566117581e-01
    98    9.389975529752e-03
    99   -1.199426972620e+00
   100    1.208368569142e+00
   101    3.845205054608e-03
   102   -5.216217503642e-01
   103    5.247282176798e-01
   104    8.310214700273e-02
   105   -1.072601095398e-01
   106    1.317747686802e-03
   107    4.674637006975e-02
   108    1.081421393201e-01
   109    7.778037613299e-01
   110   -8.559226172682e-01
   111    6.387932086401e-03
   112    4.431753375282e-01
   113    8.633293295748e-01
   114   -9.319953097302e-02
   115   -6.116680915210e-01
   116    2.371142936968e-01
   117    3.616056871128e-01
   118    4.319835048233e-04
   119   -4.750813657674e-01
   120   -2.995009995840e-01
Sym=X
Ene= 6.814955
Spin=Alpha
Occup=0
     1    8.471891851451e-03
     2    1.029812982075e-02
     3   -2.319552972951e-02
     4   -2.973016261294e-02
     5   -3.318279441865e-01
     6    4.497218564404e-01
     7   -1.096081391403e-01
     8    1.058567998723e+00
     9   -1.399608790342e+00
    10    3.600250480133e-01
    11    4.614160332688e-01
    12   -5.999697995407e-01
    13    1.595485013102e-01
    14   -2.616822555815e-02
    15   -1.346786490376e-01
    16    9.561730915183e-02
    17   -1.042732505093e-01
    18    3.028505284552e-02
    19   -2.288472360769e-01
    20   -9.932328687334e-01
    21    7.334294234374e-01
    22   -9.173245568549e-01
    23    2.419832164934e-01
    24   -2.531537372450e-02
    25    4.781730383991e-01
    26   -2.284752036487e-01
    27    7.695868747009e-01
    28    1.090607648905e-02
    29    2.776020318432e-01
    30    5.923325962571e-02
    31   -1.777569560287e-03
    32   -2.406453258241e-03
    33    4.731897853667e-03
    34    6.580300762980e-03
    35    2.033325679094e-01
    36   -8.749387645139e-02
    37    1.121542786127e-01
    38   -6.284603679774e-01
    39    2.779987818266e-01
    40   -3.477420964685e-01
    41   -2.707118960564e-01
    42    1.211249985048e-01
    43   -1.514033460037e-01
    44    2.121553300686e-02
    45    2.729777265335e-02
    46   -5.636396181746e-02
    47   -3.424270326198e-02
    48   -2.840803202683e-02
    49    2.299972595930e-01
    50    2.010498306599e-01
    51   -4.504418893004e-01
    52   -3.361152018550e-01
    53   -2.554334311084e-01
    54    2.582233332272e-02
    55   -4.434749376495e-02
    56    2.976746420512e-01
    57    2.457364132123e-01
    58    1.598270064074e-03
    59    3.075428341101e-02
    60   -2.021583368413e-01
    61   -6.617744462639e-03
    62   -7.698027123742e-03
    63    1.829924741994e-02
    64    2.287207640770e-02
    65   -1.992848340902e-01
    66   -4.535785970946e-01
    67   -2.389111090568e-01
    68    6.404530109094e-01
    69    1.416457308215e+00
    70    7.637688055846e-01
    71    2.798031719793e-01
    72    6.083603621768e-01
    73    3.328252299658e-01
    74    5.520540738144e-02
    75    1.344870032224e-01
    76    6.027492055884e-02
    77    8.676766528159e-02
    78    7.196521977470e-02
    79    4.830756843622e-01
    80    9.899647302183e-01
    81    4.586558602961e-01
    82    7.541206966451e-01
    83    5.567097550085e-01
    84   -6.277935602893e-02
    85    5.702675059341e-01
    86    4.530890828806e-02
    87    6.224282322125e-01
    88    8.523351445176e-03
    89    3.883483397963e-01
    90    1.081845410820e-01
    91   -1.864546013983e-05
    92   -4.861693392179e-05
    93    4.875321270794e-05
    94    2.298233763792e-04
    95    3.366229820548e-01
    96    9.313134792060e-02
    97    2.434386776164e-01
    98   -1.047544747700e+00
    99   -2.894447645570e-01
   100   -7.579045888128e-01
   101   -4.529975338076e-01
   102   -1.253699859761e-01
   103   -3.273960350858e-01
   104   -5.016956409867e-02
   105   -2.438095171495e-02
   106   -9.264068490672e-02
   107    5.207618770321e-02
   108   -6.825440272670e-02
   109   -4.834483991393e-01
   110   -2.005641704483e-01
   111   -7.506026968230e-01
   112    5.026837953722e-01
   113   -5.502961030618e-01
   114    6.770041823350e-02
   115    4.795983212359e-02
   116   -4.888695053158e-01
   117    3.929822642150e-01
   118   -7.607498715786e-04
   119    1.393968685524e-01
   120    3.604320377429e-01
Sym=X
Ene= 7.521234
Spin=Alpha
Occup=0
     1    6.501088087524e-01
     2    2.384262070064e+00
     3   -9.387247837593e-01
     4   -9.274273020773e-01
     5   -5.793939927214e-02
     6   -5.889682459952e-02
     7   -5.711334177237e-02
     8   -2.402454731327e-01
     9   -2.439902878475e-01
    10   -2.362062550691e-01
    11    4.838042526091e-01
    12    4.901177831264e-01
    13    4.778077199040e-01
    14   -6.924808999283e-03
    15    2.369113676471e-01
    16    2.410102807535e-01
    17   -4.061244251034e-03
    18    2.451994826571e-01
    19    8.295453201444e-03
    20   -3.291214142529e-01
    21   -3.314546801409e-01
    22    4.873831746347e-03
    23   -3.335623628663e-01
    24   -5.408286614936e-02
    25    3.227890281604e-02
    26    3.160362990102e-02
    27   -8.183091106082e-05
    28   -1.088096770334e-01
    29   -4.170714419827e-02
    30    4.070550190722e-02
    31    6.513440834899e-01
    32    2.384960318205e+00
    33   -9.461246308100e-01
    34   -8.886539645551e-01
    35    5.524958597693e-02
    36    5.496706642541e-02
    37   -5.545222073041e-02
    38    2.466422937186e-01
    39    2.502239118746e-01
    40   -2.475556200345e-01
    41   -4.723638279932e-01
    42   -4.702832580276e-01
    43    4.753107282794e-01
    44   -1.250035992514e-04
    45   -2.410114178598e-01
    46   -2.415408150899e-01
    47   -1.513274874750e-03
    48    2.409887538766e-01
    49   -8.201464268619e-04
    50    3.301164858488e-01
    51    3.283339008943e-01
    52    1.618706433307e-03
    53   -3.241844055448e-01
    54   -5.292499412198e-02
    55   -3.194643879009e-02
    56   -3.128692093752e-02
    57    1.302228012179e-03
    58   -1.082835748032e-01
    59    4.246583539724e-02
    60   -4.045717826012e-02
    61    6.489267085490e-01
    62    2.383846457351e+00
    63   -9.312496881848e-01
    64   -9.693057808581e-01
    65    6.084969547535e-02
    66   -6.060221399845e-02
    67    6.112197566389e-02
    68    2.332165498294e-01
    69   -2.326939560863e-01
    70    2.296554069634e-01
    71   -4.964444975206e-01
    72    4.930752396201e-01
    73   -4.983828230267e-01
    74   -1.414497591798e-03
    75    2.411680087928e-01
    76   -2.407400919048e-01
    77    5.949072615448e-04
    78   -2.412469532674e-01
    79    1.073943871250e-03
    80   -3.388855661772e-01
    81    3.347246616514e-01
    82   -1.611035018844e-03
    83    3.327931376999e-01
    84    5.449491220784e-02
    85   -3.148104261598e-02
    86    3.336099454388e-02
    87    1.059074636280e-04
    88   -1.094300057654e-01
    89    4.192968850423e-02
    90    4.083694191590e-02
    91    6.500826833759e-01
    92    2.384289853283e+00
    93   -9.385974684468e-01
    94   -9.284133884188e-01
    95   -5.808154503955e-02
    96    5.775265837283e-02
    97    5.830868445986e-02
    98   -2.399420207474e-01
    99    2.436678714359e-01
   100    2.365193666418e-01
   101    4.841977452132e-01
   102   -4.821844648093e-01
   103   -4.862063574187e-01
   104   -2.626655804879e-03
   105   -2.405990165228e-01
   106    2.411349229360e-01
   107   -1.524786423249e-03
   108   -2.416354556217e-01
   109    2.942480212527e-03
   110    3.334213844920e-01
   111   -3.314050317088e-01
   112    1.606375139827e-03
   113    3.297081291694e-01
   114    5.482426929995e-02
   115    3.445576937874e-02
   116   -3.047979909100e-02
   117    6.226646105534e-04
   118   -1.088630269409e-01
   119   -4.012408806000e-02
   120   -4.060348088137e-02
Sym=X
Ene= 9.675180
Spin=Alpha
Occup=0
     1   -7.748917311721e-01
     2   -2.593618933916e+00
     3    1.616216880257e+00
     4    6.417268637515e-01
     5   -2.671295500353e-01
     6   -2.887017465178e-01
     7   -1.358773168364e-01
     8    9.365950744214e-01
     9    9.958703496219e-01
    10    5.608893202032e-01
    11   -1.400976030882e-01
    12   -1.540735056047e-01
    13   -7.776987061537e-02
    14   -4.207603352411e-03
    15   -4.990352598680e-02
    16   -5.227940582079e-02
    17    2.090373880498e-04
    18   -8.048435171177e-02
    19    2.404829833598e-01
    20   -6.979826577678e-02
    21   -1.232426785041e-01
    22    3.283276556389e-02
    23   -4.891323084351e-01
    24   -1.115753051461e-02
    25   -1.452818551730e-01
    26   -1.166808874742e-01
    27   -3.164165929067e-02
    28   -2.181006387868e-02
    29   -2.167675373991e-01
    30    1.983106249753e-01
    31    1.141896403761e+00
    32    3.815549175345e+00
    33   -2.388282351147e+00
    34   -9.299432507272e-01
    35   -3.494970381043e-01
    36   -3.733594621993e-01
    37    3.097283126657e-01
    38    1.243360341373e+00
    39    1.315819825231e+00
    40   -1.146123198340e+00
    41   -1.867450470424e-01
    42   -1.926893302921e-01
    43    1.477154489726e-01
    44    4.391109867448e-03
    45   -8.495981194826e-02
    46   -8.968936604945e-02
    47   -1.044183840567e-03
    48    9.487707178976e-02
    49   -9.199968666133e-02
    50   -2.684319153193e-01
    51   -3.314998691208e-01
    52   -3.679690381751e-02
    53    4.450705321063e-01
    54    7.488193216361e-02
    55   -2.979799862314e-02
    56    3.260936657274e-03
    57    3.470499246272e-02
    58    2.108872264442e-02
    59   -1.466993276060e-01
    60    1.279734743545e-01
    61   -2.811354605780e-01
    62   -9.422149069181e-01
    63    5.850495849104e-01
    64    2.354510959366e-01
    65   -4.138840158876e-02
    66   -1.881699812998e-01
    67    1.035371771711e-01
    68    7.458221270246e-02
    69    6.185053965748e-01
    70   -3.600279153406e-01
    71    2.054111961647e-02
    72   -6.511107290552e-02
    73    5.403693567459e-02
    74    1.034920085181e-03
    75    2.295672530021e-03
    76    5.165705162692e-02
    77    5.050867046290e-04
    78    1.716300329966e-02
    79   -5.379126609630e-02
    80    2.150712433848e-01
    81    4.372351895533e-01
    82    3.424825976414e-01
    83    2.877504798836e-02
    84    3.043302706572e-02
    85    1.257978697873e-01
    86    2.267642180428e-01
    87    3.632374219479e-01
    88   -3.661484258451e-03
    89    5.035836104554e-02
    90   -8.207095494378e-02
    91   -9.444514587302e-02
    92   -3.169796986624e-01
    93    1.964125878531e-01
    94    6.770751513410e-02
    95   -1.220492789065e-01
    96   -1.027381526824e-01
    97    6.510713727385e-02
    98    3.846319751283e-01
    99    2.902440625001e-01
   100   -2.136440957569e-01
   101   -3.611346786265e-02
   102   -1.851027602208e-02
   103    2.228028084221e-02
   104   -2.400706466171e-04
   105    3.838176790164e-02
   106    1.456261379290e-02
   107   -7.674620091430e-05
   108   -7.076782410077e-04
   109   -9.729152816522e-02
   110    3.975290414058e-01
   111    2.380420065801e-01
   112   -3.356643739765e-01
   113   -7.443336341709e-02
   114    2.204594660297e-02
   115    2.420537053993e-01
   116    1.039885494425e-01
   117   -3.596313809057e-01
   118   -1.159517501193e-03
   119    1.196996423777e-01
   120   -1.278398981881e-02
Sym=X
Ene= 9.714559
Spin=Alpha
Occup=0
     1   -5.314029341470e-01
     2   -1.780850346794e+00
     3    1.110718711882e+00
     4    4.151000547196e-01
     5   -4.181189453246e-02
     6   -2.206583726992e-01
     7   -2.179498029511e-01
     8    2.244820448972e-01
     9    7.590645178490e-01
    10    7.546453303988e-01
    11   -4.519747026768e-02
    12   -9.791109490566e-02
    13   -9.077444517454e-02
    14    1.194489472969e-03
    15   -2.937953332361e-02
    16   -7.077475147928e-02
    17    6.933985389999e-04
    18   -2.648315797865e-02
    19   -1.474915024942e-01
    20    3.810791308607e-03
    21   -4.983093373726e-01
    22    2.684928783724e-01
    23    7.264081823226e-03
    24   -7.799374819361e-02
    25   -7.964278599261e-03
    26    2.644141759693e-01
    27   -2.885905086531e-01
    28   -1.164483184580e-02
    29    1.410876579184e-02
    30   -1.225970453582e-01
    31   -3.434865536475e-01
    32   -1.149972015672e+00
    33    7.193682025253e-01
    34    2.550619744299e-01
    35    1.573087239328e-01
    36   -2.072773185232e-02
    37   -1.763418791460e-01
    38   -5.365254986851e-01
    39   -1.993149166442e-03
    40    5.930888743776e-01
    41    6.081000300367e-02
    42    9.651308476193e-03
    43   -6.944859938933e-02
    44    1.943856401817e-04
    45    5.772140603810e-02
    46    1.533899312687e-02
    47   -7.701968290782e-04
    48   -9.350312969287e-03
    49   -1.862161031957e-01
    50    4.610998616937e-01
    51   -4.486782555957e-02
    52   -2.654686305350e-01
    53    9.700841651851e-02
    54   -6.290221133592e-02
    55   -2.851521588848e-01
    56   -4.765451413716e-03
    57    2.870922784187e-01
    58   -8.125111602773e-03
    59   -1.537850360254e-01
    60    4.653670791160e-02
    61   -3.431962329177e-01
    62   -1.151098906922e+00
    63    7.160269094159e-01
    64    2.816981581564e-01
    65    1.537978446841e-01
    66   -1.776799223841e-01
    67   -2.342776251920e-02
    68   -5.245991955274e-01
    69    5.969655205160e-01
    70    7.070715951798e-03
    71    6.870874958118e-02
    72   -7.151184088983e-02
    73    2.220390221629e-02
    74   -3.869418318231e-04
    75   -9.622347733116e-03
    76    1.401672899281e-02
    77    5.977731097648e-04
    78    5.752800865988e-02
    79    3.270837429575e-01
    80    1.104737118168e-01
    81   -4.079982816582e-02
    82    3.557318687122e-02
    83    4.620268781257e-01
    84   -3.524487985681e-02
    85    2.225262112933e-01
    86   -1.867511255596e-01
    87    3.676787299039e-02
    88   -6.899836429928e-03
    89    2.395345266656e-01
    90    2.260871730961e-01
    91    1.218151405779e+00
    92    4.082137434390e+00
    93   -2.546245505437e+00
    94   -9.519323122526e-01
    95    3.529467322169e-01
    96   -3.761535280697e-01
    97   -3.722695985510e-01
    98   -1.285674052544e+00
    99    1.356093061507e+00
   100    1.342491297829e+00
   101    1.747504412895e-01
   102   -1.809553403687e-01
   103   -1.807665998604e-01
   104   -1.752458252764e-03
   105   -9.541954027749e-02
   106    1.001327993638e-01
   107   -9.756558455488e-04
   108   -9.469938764225e-02
   109    1.115124270939e-02
   110   -3.512291918943e-01
   111    4.124659857053e-01
   112   -3.594059632679e-02
   113   -3.530953763292e-01
   114   -1.053184675453e-01
   115   -5.541393720002e-02
   116    8.397345296279e-02
   117   -3.664407277216e-02
   118    2.676822794121e-02
   119    7.102970761088e-02
   120    5.611137856501e-02
Sym=X
Ene= 9.756740
Spin=Alpha
Occup=0
     1   -7.867119449645e-01
     2   -2.640793258791e+00
     3    1.647303308972e+00
     4    5.766143438313e-01
     5   -2.839761308519e-01
     6   -1.334504235137e-01
     7   -3.023251609435e-01
     8    1.009719444682e+00
     9    5.381975047804e-01
    10    1.069370230394e+00
    11   -1.105234968798e-01
    12   -9.585794829883e-02
    13   -1.080456076566e-01
    14   -1.942466762808e-03
    15   -9.260929449034e-02
    16   -5.236118599237e-02
    17   -4.185698981787e-03
    18   -4.524352548465e-02
    19   -1.631537587441e-01
    20   -5.597799296423e-01
    21   -1.257281519979e-01
    22   -2.301104809825e-01
    23   -6.548065881404e-02
    24   -9.885964652477e-02
    25    2.644650328662e-01
    26    3.482045595361e-02
    27    2.409997596202e-01
    28   -1.192840808639e-02
    29    1.018650332688e-01
    30   -8.654110897580e-03
    31   -2.590761963666e-01
    32   -8.678903978533e-01
    33    5.442222823708e-01
    34    1.868123715626e-01
    35   -3.575213895607e-02
    36    1.012217161938e-01
    37   -1.728733624078e-01
    38    5.684286173037e-02
    39   -3.545631300462e-01
    40    5.654336929732e-01
    41   -7.093315213421e-03
    42    3.673231949605e-02
    43   -6.835884325704e-02
    44    7.699859910596e-04
    45    1.566728173426e-02
    46    4.927271275129e-02
    47    7.594108507423e-04
    48    2.790627987732e-03
    49   -2.430746431589e-01
    50    1.791117544759e-02
    51    4.094778303256e-01
    52    2.037268026624e-01
    53    1.821674990364e-01
    54   -6.692418758457e-02
    55   -7.287130268736e-02
    56   -2.917770399539e-01
    57   -2.250382834921e-01
    58   -8.030570875153e-03
    59   -1.043726601048e-01
    60    1.840325927724e-01
    61    1.147889049133e+00
    62    3.858850381095e+00
    63   -2.397562440850e+00
    64   -8.570322935851e-01
    65   -3.659393704950e-01
    66    2.893160631290e-01
    67   -3.819247022702e-01
    68    1.330845703424e+00
    69   -1.076859130265e+00
    70    1.377631032122e+00
    71   -1.555693801304e-01
    72    1.636931591015e-01
    73   -1.610439132082e-01
    74    1.302935310302e-03
    75    1.092360692913e-01
    76   -8.592900795369e-02
    77    4.565372219157e-03
    78   -8.093936841629e-02
    79    9.097118345414e-02
    80    5.128002560484e-01
    81   -2.956851642419e-01
    82    1.128087524367e-01
    83   -2.448717637040e-01
    84   -1.118771009100e-01
    85    1.687526668524e-01
    86   -6.204912624314e-02
    87    1.115149101140e-01
    88    2.970132629032e-02
    89    8.007158587733e-03
    90   -3.101104907638e-02
    91   -9.365243294613e-02
    92   -3.134040058872e-01
    93    1.967659393832e-01
    94    7.887329205886e-02
    95   -1.193147307594e-01
    96    6.024468864510e-02
    97   -9.386513735499e-02
    98    3.746343577564e-01
    99   -1.976336339340e-01
   100    2.647175943462e-01
   101   -4.233026533002e-02
   102    2.396965874404e-02
   103   -2.363038236753e-02
   104   -5.047618201610e-05
   105   -9.363172914184e-04
   106    1.510517537375e-02
   107   -1.763796609294e-04
   108    3.780046998331e-02
   109    3.165323056304e-01
   110   -6.284162165936e-02
   111    2.286301377730e-01
   112   -8.974745365859e-02
   113    3.790912257251e-01
   114   -5.616398563873e-02
   115   -1.691437783383e-01
   116    2.578585158612e-01
   117   -9.710078600259e-02
   118   -2.994007434027e-03
   119   -1.974363423146e-01
   120   -2.336059198295e-01
[5D7F]

======= END OF MOLDEN-FORMATTED INPUT FILE =======


        *************************************************************
        *                                                           *
        *  Thank you very much for using Q-Chem.  Have a nice day.  *
        *                                                           *
        *************************************************************


0 sent ACK to 0 
now end server 0 ... 
